   3   3   1   0
  0.9324195E+02  0.3184691E-09  0.3184691E-09  0.3184691E-08  0.5000000E-15
  1.000000000000000E-004
  CAR 
 Ultrathin TMD Valleytronics             
      9.66379713    -67.87802512  301     -3.38907628      1.00000000
    -67.878  0.0000E+00  0.0000E+00  0.0000E+00  0.0000E+00
    -67.620  0.0000E+00  0.0000E+00  0.0000E+00  0.0000E+00
    -67.361  0.0000E+00  0.0000E+00  0.0000E+00  0.0000E+00
    -67.103  0.0000E+00  0.0000E+00  0.0000E+00  0.0000E+00
    -66.844  0.0000E+00  0.0000E+00  0.0000E+00  0.0000E+00
    -66.586  0.0000E+00  0.0000E+00  0.0000E+00  0.0000E+00
    -66.327  0.0000E+00  0.0000E+00  0.0000E+00  0.0000E+00
    -66.069  0.0000E+00  0.0000E+00  0.0000E+00  0.0000E+00
    -65.810  0.0000E+00  0.0000E+00  0.0000E+00  0.0000E+00
    -65.552  0.0000E+00  0.0000E+00  0.0000E+00  0.0000E+00
    -65.293  0.0000E+00  0.0000E+00  0.0000E+00  0.0000E+00
    -65.035  0.0000E+00  0.0000E+00  0.0000E+00  0.0000E+00
    -64.776  0.0000E+00  0.0000E+00  0.0000E+00  0.0000E+00
    -64.518  0.0000E+00  0.0000E+00  0.0000E+00  0.0000E+00
    -64.259  0.0000E+00  0.0000E+00  0.1000E+01  0.1000E+01
    -64.001  0.0000E+00  0.0000E+00  0.1000E+01  0.1000E+01
    -63.742  0.0000E+00  0.0000E+00  0.1000E+01  0.1000E+01
    -63.484  0.0000E+00  0.0000E+00  0.1000E+01  0.1000E+01
    -63.226  0.0000E+00  0.0000E+00  0.1000E+01  0.1000E+01
    -62.967  0.0000E+00  0.0000E+00  0.1000E+01  0.1000E+01
    -62.709  0.0000E+00  0.0000E+00  0.1000E+01  0.1000E+01
    -62.450  0.0000E+00  0.0000E+00  0.1000E+01  0.1000E+01
    -62.192  0.0000E+00  0.0000E+00  0.1000E+01  0.1000E+01
    -61.933  0.0000E+00  0.0000E+00  0.1000E+01  0.1000E+01
    -61.675  0.0000E+00  0.0000E+00  0.1000E+01  0.1000E+01
    -61.416  0.0000E+00  0.0000E+00  0.1000E+01  0.1000E+01
    -61.158  0.0000E+00  0.0000E+00  0.1000E+01  0.1000E+01
    -60.899  0.0000E+00  0.0000E+00  0.1000E+01  0.1000E+01
    -60.641  0.0000E+00  0.0000E+00  0.1000E+01  0.1000E+01
    -60.382  0.0000E+00  0.0000E+00  0.1000E+01  0.1000E+01
    -60.124  0.0000E+00  0.0000E+00  0.1000E+01  0.1000E+01
    -59.865  0.0000E+00  0.0000E+00  0.1000E+01  0.1000E+01
    -59.607  0.0000E+00  0.0000E+00  0.1000E+01  0.1000E+01
    -59.348  0.0000E+00  0.0000E+00  0.1000E+01  0.1000E+01
    -59.090  0.0000E+00  0.0000E+00  0.1000E+01  0.1000E+01
    -58.831  0.0000E+00  0.0000E+00  0.1000E+01  0.1000E+01
    -58.573  0.0000E+00  0.0000E+00  0.1000E+01  0.1000E+01
    -58.315  0.0000E+00  0.0000E+00  0.1000E+01  0.1000E+01
    -58.056  0.0000E+00  0.0000E+00  0.1000E+01  0.1000E+01
    -57.798  0.0000E+00  0.0000E+00  0.1000E+01  0.1000E+01
    -57.539  0.0000E+00  0.0000E+00  0.1000E+01  0.1000E+01
    -57.281  0.0000E+00  0.0000E+00  0.1000E+01  0.1000E+01
    -57.022  0.0000E+00  0.0000E+00  0.1000E+01  0.1000E+01
    -56.764  0.0000E+00  0.0000E+00  0.1000E+01  0.1000E+01
    -56.505  0.0000E+00  0.0000E+00  0.1000E+01  0.1000E+01
    -56.247  0.0000E+00  0.0000E+00  0.1000E+01  0.1000E+01
    -55.988  0.0000E+00  0.0000E+00  0.1000E+01  0.1000E+01
    -55.730  0.0000E+00  0.0000E+00  0.1000E+01  0.1000E+01
    -55.471  0.0000E+00  0.0000E+00  0.1000E+01  0.1000E+01
    -55.213  0.0000E+00  0.0000E+00  0.1000E+01  0.1000E+01
    -54.954  0.0000E+00  0.0000E+00  0.1000E+01  0.1000E+01
    -54.696  0.0000E+00  0.0000E+00  0.1000E+01  0.1000E+01
    -54.437  0.0000E+00  0.0000E+00  0.1000E+01  0.1000E+01
    -54.179  0.0000E+00  0.0000E+00  0.1000E+01  0.1000E+01
    -53.920  0.0000E+00  0.0000E+00  0.1000E+01  0.1000E+01
    -53.662  0.0000E+00  0.0000E+00  0.1000E+01  0.1000E+01
    -53.404  0.0000E+00  0.0000E+00  0.1000E+01  0.1000E+01
    -53.145  0.0000E+00  0.0000E+00  0.1000E+01  0.1000E+01
    -52.887  0.0000E+00  0.0000E+00  0.1000E+01  0.1000E+01
    -52.628  0.0000E+00  0.0000E+00  0.1000E+01  0.1000E+01
    -52.370  0.0000E+00  0.0000E+00  0.1000E+01  0.1000E+01
    -52.111  0.0000E+00  0.0000E+00  0.1000E+01  0.1000E+01
    -51.853  0.0000E+00  0.0000E+00  0.1000E+01  0.1000E+01
    -51.594  0.0000E+00  0.0000E+00  0.1000E+01  0.1000E+01
    -51.336  0.0000E+00  0.0000E+00  0.1000E+01  0.1000E+01
    -51.077  0.0000E+00  0.0000E+00  0.1000E+01  0.1000E+01
    -50.819  0.0000E+00  0.0000E+00  0.1000E+01  0.1000E+01
    -50.560  0.0000E+00  0.0000E+00  0.1000E+01  0.1000E+01
    -50.302  0.0000E+00  0.0000E+00  0.1000E+01  0.1000E+01
    -50.043  0.0000E+00  0.0000E+00  0.1000E+01  0.1000E+01
    -49.785  0.0000E+00  0.0000E+00  0.1000E+01  0.1000E+01
    -49.526  0.0000E+00  0.0000E+00  0.1000E+01  0.1000E+01
    -49.268  0.0000E+00  0.0000E+00  0.1000E+01  0.1000E+01
    -49.010  0.0000E+00  0.0000E+00  0.1000E+01  0.1000E+01
    -48.751  0.0000E+00  0.0000E+00  0.1000E+01  0.1000E+01
    -48.493  0.0000E+00  0.0000E+00  0.1000E+01  0.1000E+01
    -48.234  0.0000E+00  0.0000E+00  0.1000E+01  0.1000E+01
    -47.976  0.0000E+00  0.0000E+00  0.1000E+01  0.1000E+01
    -47.717  0.0000E+00  0.0000E+00  0.1000E+01  0.1000E+01
    -47.459  0.0000E+00  0.0000E+00  0.1000E+01  0.1000E+01
    -47.200  0.0000E+00  0.0000E+00  0.1000E+01  0.1000E+01
    -46.942  0.0000E+00  0.0000E+00  0.1000E+01  0.1000E+01
    -46.683  0.0000E+00  0.0000E+00  0.1000E+01  0.1000E+01
    -46.425  0.0000E+00  0.0000E+00  0.1000E+01  0.1000E+01
    -46.166  0.0000E+00  0.0000E+00  0.1000E+01  0.1000E+01
    -45.908  0.0000E+00  0.0000E+00  0.1000E+01  0.1000E+01
    -45.649  0.0000E+00  0.0000E+00  0.1000E+01  0.1000E+01
    -45.391  0.0000E+00  0.0000E+00  0.1000E+01  0.1000E+01
    -45.132  0.0000E+00  0.0000E+00  0.1000E+01  0.1000E+01
    -44.874  0.0000E+00  0.0000E+00  0.1000E+01  0.1000E+01
    -44.615  0.0000E+00  0.0000E+00  0.1000E+01  0.1000E+01
    -44.357  0.0000E+00  0.0000E+00  0.1000E+01  0.1000E+01
    -44.099  0.0000E+00  0.0000E+00  0.1000E+01  0.1000E+01
    -43.840  0.0000E+00  0.0000E+00  0.1000E+01  0.1000E+01
    -43.582  0.0000E+00  0.0000E+00  0.1000E+01  0.1000E+01
    -43.323  0.0000E+00  0.0000E+00  0.1000E+01  0.1000E+01
    -43.065  0.0000E+00  0.0000E+00  0.1000E+01  0.1000E+01
    -42.806  0.0000E+00  0.0000E+00  0.1000E+01  0.1000E+01
    -42.548  0.0000E+00  0.0000E+00  0.1000E+01  0.1000E+01
    -42.289  0.0000E+00  0.0000E+00  0.1000E+01  0.1000E+01
    -42.031  0.0000E+00  0.0000E+00  0.1000E+01  0.1000E+01
    -41.772  0.0000E+00  0.0000E+00  0.1000E+01  0.1000E+01
    -41.514  0.0000E+00  0.0000E+00  0.1000E+01  0.1000E+01
    -41.255  0.0000E+00  0.0000E+00  0.1000E+01  0.1000E+01
    -40.997  0.0000E+00  0.0000E+00  0.1000E+01  0.1000E+01
    -40.738  0.0000E+00  0.0000E+00  0.1000E+01  0.1000E+01
    -40.480  0.0000E+00  0.0000E+00  0.1000E+01  0.1000E+01
    -40.221  0.0000E+00  0.0000E+00  0.1000E+01  0.1000E+01
    -39.963  0.0000E+00  0.0000E+00  0.1000E+01  0.1000E+01
    -39.704  0.0000E+00  0.0000E+00  0.1000E+01  0.1000E+01
    -39.446  0.0000E+00  0.0000E+00  0.1000E+01  0.1000E+01
    -39.188  0.0000E+00  0.0000E+00  0.1000E+01  0.1000E+01
    -38.929  0.0000E+00  0.0000E+00  0.1000E+01  0.1000E+01
    -38.671  0.0000E+00  0.0000E+00  0.1000E+01  0.1000E+01
    -38.412  0.3240E+02  0.3240E+02  0.2984E+01  0.2984E+01
    -38.154  0.0000E+00  0.0000E+00  0.4000E+01  0.4000E+01
    -37.895  0.0000E+00  0.0000E+00  0.4000E+01  0.4000E+01
    -37.637  0.0000E+00  0.0000E+00  0.4000E+01  0.4000E+01
    -37.378  0.0000E+00  0.0000E+00  0.4000E+01  0.4000E+01
    -37.120  0.0000E+00  0.0000E+00  0.4000E+01  0.4000E+01
    -36.861  0.0000E+00  0.0000E+00  0.4000E+01  0.4000E+01
    -36.603  0.0000E+00  0.0000E+00  0.4000E+01  0.4000E+01
    -36.344  0.0000E+00  0.0000E+00  0.4000E+01  0.4000E+01
    -36.086  0.0000E+00  0.0000E+00  0.4000E+01  0.4000E+01
    -35.827  0.0000E+00  0.0000E+00  0.4000E+01  0.4000E+01
    -35.569  0.0000E+00  0.0000E+00  0.4000E+01  0.4000E+01
    -35.310  0.0000E+00  0.0000E+00  0.4000E+01  0.4000E+01
    -35.052  0.0000E+00  0.0000E+00  0.4000E+01  0.4000E+01
    -34.794  0.0000E+00  0.0000E+00  0.4000E+01  0.4000E+01
    -34.535  0.0000E+00  0.0000E+00  0.4000E+01  0.4000E+01
    -34.277  0.0000E+00  0.0000E+00  0.4000E+01  0.4000E+01
    -34.018  0.0000E+00  0.0000E+00  0.4000E+01  0.4000E+01
    -33.760  0.0000E+00  0.0000E+00  0.4000E+01  0.4000E+01
    -33.501  0.0000E+00  0.0000E+00  0.4000E+01  0.4000E+01
    -33.243  0.0000E+00  0.0000E+00  0.4000E+01  0.4000E+01
    -32.984  0.0000E+00  0.0000E+00  0.4000E+01  0.4000E+01
    -32.726  0.0000E+00  0.0000E+00  0.4000E+01  0.4000E+01
    -32.467  0.0000E+00  0.0000E+00  0.4000E+01  0.4000E+01
    -32.209  0.0000E+00  0.0000E+00  0.4000E+01  0.4000E+01
    -31.950  0.0000E+00  0.0000E+00  0.4000E+01  0.4000E+01
    -31.692  0.0000E+00  0.0000E+00  0.4000E+01  0.4000E+01
    -31.433  0.0000E+00  0.0000E+00  0.4000E+01  0.4000E+01
    -31.175  0.0000E+00  0.0000E+00  0.4000E+01  0.4000E+01
    -30.916  0.0000E+00  0.0000E+00  0.4000E+01  0.4000E+01
    -30.658  0.0000E+00  0.0000E+00  0.4000E+01  0.4000E+01
    -30.399  0.0000E+00  0.0000E+00  0.4000E+01  0.4000E+01
    -30.141  0.0000E+00  0.0000E+00  0.4000E+01  0.4000E+01
    -29.883  0.0000E+00  0.0000E+00  0.4000E+01  0.4000E+01
    -29.624  0.0000E+00  0.0000E+00  0.4000E+01  0.4000E+01
    -29.366  0.0000E+00  0.0000E+00  0.4000E+01  0.4000E+01
    -29.107  0.0000E+00  0.0000E+00  0.4000E+01  0.4000E+01
    -28.849  0.0000E+00  0.0000E+00  0.4000E+01  0.4000E+01
    -28.590  0.0000E+00  0.0000E+00  0.4000E+01  0.4000E+01
    -28.332  0.0000E+00  0.0000E+00  0.4000E+01  0.4000E+01
    -28.073  0.0000E+00  0.0000E+00  0.4000E+01  0.4000E+01
    -27.815  0.0000E+00  0.0000E+00  0.4000E+01  0.4000E+01
    -27.556  0.0000E+00  0.0000E+00  0.4000E+01  0.4000E+01
    -27.298  0.0000E+00  0.0000E+00  0.4000E+01  0.4000E+01
    -27.039  0.0000E+00  0.0000E+00  0.4000E+01  0.4000E+01
    -26.781  0.0000E+00  0.0000E+00  0.4000E+01  0.4000E+01
    -26.522  0.0000E+00  0.0000E+00  0.4000E+01  0.4000E+01
    -26.264  0.0000E+00  0.0000E+00  0.4000E+01  0.4000E+01
    -26.005  0.0000E+00  0.0000E+00  0.4000E+01  0.4000E+01
    -25.747  0.0000E+00  0.0000E+00  0.4000E+01  0.4000E+01
    -25.488  0.0000E+00  0.0000E+00  0.4000E+01  0.4000E+01
    -25.230  0.0000E+00  0.0000E+00  0.4000E+01  0.4000E+01
    -24.972  0.0000E+00  0.0000E+00  0.4000E+01  0.4000E+01
    -24.713  0.0000E+00  0.0000E+00  0.4000E+01  0.4000E+01
    -24.455  0.0000E+00  0.0000E+00  0.4000E+01  0.4000E+01
    -24.196  0.0000E+00  0.0000E+00  0.4000E+01  0.4000E+01
    -23.938  0.0000E+00  0.0000E+00  0.4000E+01  0.4000E+01
    -23.679  0.0000E+00  0.0000E+00  0.4000E+01  0.4000E+01
    -23.421  0.0000E+00  0.0000E+00  0.4000E+01  0.4000E+01
    -23.162  0.0000E+00  0.0000E+00  0.4000E+01  0.4000E+01
    -22.904  0.0000E+00  0.0000E+00  0.4000E+01  0.4000E+01
    -22.645  0.0000E+00  0.0000E+00  0.4000E+01  0.4000E+01
    -22.387  0.0000E+00  0.0000E+00  0.4000E+01  0.4000E+01
    -22.128  0.0000E+00  0.0000E+00  0.4000E+01  0.4000E+01
    -21.870  0.0000E+00  0.0000E+00  0.4000E+01  0.4000E+01
    -21.611  0.0000E+00  0.0000E+00  0.4000E+01  0.4000E+01
    -21.353  0.0000E+00  0.0000E+00  0.4000E+01  0.4000E+01
    -21.094  0.0000E+00  0.0000E+00  0.4000E+01  0.4000E+01
    -20.836  0.0000E+00  0.0000E+00  0.4000E+01  0.4000E+01
    -20.578  0.0000E+00  0.0000E+00  0.4000E+01  0.4000E+01
    -20.319  0.0000E+00  0.0000E+00  0.4000E+01  0.4000E+01
    -20.061  0.0000E+00  0.0000E+00  0.4000E+01  0.4000E+01
    -19.802  0.0000E+00  0.0000E+00  0.4000E+01  0.4000E+01
    -19.544  0.0000E+00  0.0000E+00  0.4000E+01  0.4000E+01
    -19.285  0.0000E+00  0.0000E+00  0.4000E+01  0.4000E+01
    -19.027  0.0000E+00  0.0000E+00  0.4000E+01  0.4000E+01
    -18.768  0.0000E+00  0.0000E+00  0.4000E+01  0.4000E+01
    -18.510  0.0000E+00  0.0000E+00  0.4000E+01  0.4000E+01
    -18.251  0.0000E+00  0.0000E+00  0.4000E+01  0.4000E+01
    -17.993  0.0000E+00  0.0000E+00  0.4000E+01  0.4000E+01
    -17.734  0.0000E+00  0.0000E+00  0.4000E+01  0.4000E+01
    -17.476  0.1726E+00  0.1726E+00  0.4006E+01  0.4006E+01
    -17.217  0.2595E+00  0.2595E+00  0.4074E+01  0.4074E+01
    -16.959  0.3002E+00  0.3002E+00  0.4148E+01  0.4148E+01
    -16.700  0.3266E+00  0.3266E+00  0.4228E+01  0.4228E+01
    -16.442  0.3836E+00  0.3836E+00  0.4318E+01  0.4318E+01
    -16.183  0.1373E+01  0.1373E+01  0.4458E+01  0.4458E+01
    -15.925  0.1393E+01  0.1393E+01  0.4771E+01  0.4771E+01
    -15.667  0.2169E+01  0.2169E+01  0.5287E+01  0.5287E+01
    -15.408  0.1774E+01  0.1774E+01  0.5949E+01  0.5949E+01
    -15.150  0.0000E+00  0.0000E+00  0.6000E+01  0.6000E+01
    -14.891  0.0000E+00  0.0000E+00  0.6000E+01  0.6000E+01
    -14.633  0.0000E+00  0.0000E+00  0.6000E+01  0.6000E+01
    -14.374  0.0000E+00  0.0000E+00  0.6000E+01  0.6000E+01
    -14.116  0.0000E+00  0.0000E+00  0.6000E+01  0.6000E+01
    -13.857  0.0000E+00  0.0000E+00  0.6000E+01  0.6000E+01
    -13.599  0.0000E+00  0.0000E+00  0.6000E+01  0.6000E+01
    -13.340  0.0000E+00  0.0000E+00  0.6000E+01  0.6000E+01
    -13.082  0.0000E+00  0.0000E+00  0.6000E+01  0.6000E+01
    -12.823  0.0000E+00  0.0000E+00  0.6000E+01  0.6000E+01
    -12.565  0.0000E+00  0.0000E+00  0.6000E+01  0.6000E+01
    -12.306  0.0000E+00  0.0000E+00  0.6000E+01  0.6000E+01
    -12.048  0.0000E+00  0.0000E+00  0.6000E+01  0.6000E+01
    -11.789  0.0000E+00  0.0000E+00  0.6000E+01  0.6000E+01
    -11.531  0.0000E+00  0.0000E+00  0.6000E+01  0.6000E+01
    -11.272  0.0000E+00  0.0000E+00  0.6000E+01  0.6000E+01
    -11.014  0.0000E+00  0.0000E+00  0.6000E+01  0.6000E+01
    -10.756  0.0000E+00  0.0000E+00  0.6000E+01  0.6000E+01
    -10.497  0.0000E+00  0.0000E+00  0.6000E+01  0.6000E+01
    -10.239  0.0000E+00  0.0000E+00  0.6000E+01  0.6000E+01
     -9.980  0.0000E+00  0.0000E+00  0.6000E+01  0.6000E+01
     -9.722  0.0000E+00  0.0000E+00  0.6000E+01  0.6000E+01
     -9.463  0.0000E+00  0.0000E+00  0.6000E+01  0.6000E+01
     -9.205  0.0000E+00  0.0000E+00  0.6000E+01  0.6000E+01
     -8.946  0.9073E+00  0.9073E+00  0.6150E+01  0.6150E+01
     -8.688  0.1957E+01  0.1957E+01  0.6484E+01  0.6484E+01
     -8.429  0.6800E+00  0.6800E+00  0.7113E+01  0.7113E+01
     -8.171  0.8595E+00  0.8595E+00  0.7342E+01  0.7342E+01
     -7.912  0.4331E+00  0.4331E+00  0.7488E+01  0.7488E+01
     -7.654  0.3493E+00  0.3493E+00  0.7589E+01  0.7589E+01
     -7.395  0.2487E+01  0.2487E+01  0.7880E+01  0.7880E+01
     -7.137  0.1003E+01  0.1003E+01  0.8544E+01  0.8544E+01
     -6.878  0.5542E+00  0.5542E+00  0.8702E+01  0.8702E+01
     -6.620  0.6237E+01  0.6237E+01  0.9148E+01  0.9148E+01
     -6.362  0.1549E+01  0.1549E+01  0.9664E+01  0.9664E+01
     -6.103  0.6926E+00  0.6926E+00  0.9879E+01  0.9879E+01
     -5.845  0.8573E+00  0.8573E+00  0.1018E+02  0.1018E+02
     -5.586  0.6327E+00  0.6327E+00  0.1029E+02  0.1029E+02
     -5.328  0.1259E+02  0.1259E+02  0.1076E+02  0.1076E+02
     -5.069  0.7676E+00  0.7676E+00  0.1129E+02  0.1129E+02
     -4.811  0.1233E+01  0.1233E+01  0.1153E+02  0.1153E+02
     -4.552  0.1446E+01  0.1446E+01  0.1190E+02  0.1190E+02
     -4.294  0.1141E+01  0.1141E+01  0.1209E+02  0.1209E+02
     -4.035  0.1352E+01  0.1352E+01  0.1255E+02  0.1255E+02
     -3.777  0.7739E+00  0.7739E+00  0.1284E+02  0.1284E+02
     -3.518  0.2918E+00  0.2918E+00  0.1299E+02  0.1299E+02
     -3.260  0.0000E+00  0.0000E+00  0.1300E+02  0.1300E+02
     -3.001  0.0000E+00  0.0000E+00  0.1300E+02  0.1300E+02
     -2.743  0.0000E+00  0.0000E+00  0.1300E+02  0.1300E+02
     -2.484  0.0000E+00  0.0000E+00  0.1300E+02  0.1300E+02
     -2.226  0.0000E+00  0.0000E+00  0.1300E+02  0.1300E+02
     -1.967  0.0000E+00  0.0000E+00  0.1300E+02  0.1300E+02
     -1.709  0.1206E+00  0.1206E+00  0.1301E+02  0.1301E+02
     -1.451  0.2230E+01  0.2230E+01  0.1312E+02  0.1312E+02
     -1.192  0.3241E+00  0.3241E+00  0.1389E+02  0.1389E+02
     -0.934  0.2551E+01  0.2551E+01  0.1442E+02  0.1442E+02
     -0.675  0.1519E+01  0.1519E+01  0.1500E+02  0.1500E+02
     -0.417  0.1218E+01  0.1218E+01  0.1535E+02  0.1535E+02
     -0.158  0.1210E+01  0.1210E+01  0.1574E+02  0.1574E+02
      0.100  0.8120E+00  0.8120E+00  0.1599E+02  0.1599E+02
      0.359  0.3596E+00  0.3596E+00  0.1622E+02  0.1622E+02
      0.617  0.6450E+00  0.6450E+00  0.1633E+02  0.1633E+02
      0.876  0.8416E+00  0.8416E+00  0.1673E+02  0.1673E+02
      1.134  0.7174E+00  0.7174E+00  0.1693E+02  0.1693E+02
      1.393  0.0000E+00  0.0000E+00  0.1700E+02  0.1700E+02
      1.651  0.0000E+00  0.0000E+00  0.1700E+02  0.1700E+02
      1.910  0.0000E+00  0.0000E+00  0.1700E+02  0.1700E+02
      2.168  0.2992E+00  0.2996E+00  0.1703E+02  0.1703E+02
      2.427  0.3510E+00  0.3511E+00  0.1712E+02  0.1712E+02
      2.685  0.6924E+00  0.6920E+00  0.1726E+02  0.1726E+02
      2.944  0.7971E+00  0.7971E+00  0.1745E+02  0.1745E+02
      3.202  0.9739E+00  0.9740E+00  0.1768E+02  0.1768E+02
      3.460  0.1115E+01  0.1115E+01  0.1795E+02  0.1795E+02
      3.719  0.1391E+01  0.1390E+01  0.1840E+02  0.1840E+02
      3.977  0.7434E+00  0.7434E+00  0.1862E+02  0.1862E+02
      4.236  0.7289E+00  0.7288E+00  0.1881E+02  0.1881E+02
      4.494  0.1165E+01  0.1165E+01  0.1904E+02  0.1904E+02
      4.753  0.1199E+01  0.1199E+01  0.1937E+02  0.1937E+02
      5.011  0.1064E+01  0.1064E+01  0.1966E+02  0.1966E+02
      5.270  0.2729E+00  0.2729E+00  0.1982E+02  0.1982E+02
      5.528  0.2947E+00  0.2947E+00  0.1990E+02  0.1990E+02
      5.787  0.2004E+00  0.2003E+00  0.1996E+02  0.1996E+02
      6.045  0.5343E-01  0.5342E-01  0.2000E+02  0.2000E+02
      6.304  0.0000E+00  0.0000E+00  0.2000E+02  0.2000E+02
      6.562  0.0000E+00  0.0000E+00  0.2000E+02  0.2000E+02
      6.821  0.0000E+00  0.0000E+00  0.2000E+02  0.2000E+02
      7.079  0.0000E+00  0.0000E+00  0.2000E+02  0.2000E+02
      7.338  0.0000E+00  0.0000E+00  0.2000E+02  0.2000E+02
      7.596  0.0000E+00  0.0000E+00  0.2000E+02  0.2000E+02
      7.854  0.0000E+00  0.0000E+00  0.2000E+02  0.2000E+02
      8.113  0.0000E+00  0.0000E+00  0.2000E+02  0.2000E+02
      8.371  0.0000E+00  0.0000E+00  0.2000E+02  0.2000E+02
      8.630  0.0000E+00  0.0000E+00  0.2000E+02  0.2000E+02
      8.888  0.0000E+00  0.0000E+00  0.2000E+02  0.2000E+02
      9.147  0.0000E+00  0.0000E+00  0.2000E+02  0.2000E+02
      9.405  0.0000E+00  0.0000E+00  0.2000E+02  0.2000E+02
      9.664  0.0000E+00  0.0000E+00  0.2000E+02  0.2000E+02
      9.66379713    -67.87802512  301     -3.38907628      1.00000000
    -67.878  0.0000E+00  0.0000E+00  0.0000E+00  0.0000E+00  0.0000E+00  0.0000E+00  0.0000E+00  0.0000E+00  0.0000E+00  0.0000E+00  0.0000E+00  0.0000E+00  0.0000E+00  0.0000E+00  0.0000E+00  0.0000E+00  0.0000E+00  0.0000E+00
    -67.620  0.0000E+00  0.0000E+00  0.0000E+00  0.0000E+00  0.0000E+00  0.0000E+00  0.0000E+00  0.0000E+00  0.0000E+00  0.0000E+00  0.0000E+00  0.0000E+00  0.0000E+00  0.0000E+00  0.0000E+00  0.0000E+00  0.0000E+00  0.0000E+00
    -67.361  0.0000E+00  0.0000E+00  0.0000E+00  0.0000E+00  0.0000E+00  0.0000E+00  0.0000E+00  0.0000E+00  0.0000E+00  0.0000E+00  0.0000E+00  0.0000E+00  0.0000E+00  0.0000E+00  0.0000E+00  0.0000E+00  0.0000E+00  0.0000E+00
    -67.103  0.0000E+00  0.0000E+00  0.0000E+00  0.0000E+00  0.0000E+00  0.0000E+00  0.0000E+00  0.0000E+00  0.0000E+00  0.0000E+00  0.0000E+00  0.0000E+00  0.0000E+00  0.0000E+00  0.0000E+00  0.0000E+00  0.0000E+00  0.0000E+00
    -66.844  0.0000E+00  0.0000E+00  0.0000E+00  0.0000E+00  0.0000E+00  0.0000E+00  0.0000E+00  0.0000E+00  0.0000E+00  0.0000E+00  0.0000E+00  0.0000E+00  0.0000E+00  0.0000E+00  0.0000E+00  0.0000E+00  0.0000E+00  0.0000E+00
    -66.586  0.0000E+00  0.0000E+00  0.0000E+00  0.0000E+00  0.0000E+00  0.0000E+00  0.0000E+00  0.0000E+00  0.0000E+00  0.0000E+00  0.0000E+00  0.0000E+00  0.0000E+00  0.0000E+00  0.0000E+00  0.0000E+00  0.0000E+00  0.0000E+00
    -66.327  0.0000E+00  0.0000E+00  0.0000E+00  0.0000E+00  0.0000E+00  0.0000E+00  0.0000E+00  0.0000E+00  0.0000E+00  0.0000E+00  0.0000E+00  0.0000E+00  0.0000E+00  0.0000E+00  0.0000E+00  0.0000E+00  0.0000E+00  0.0000E+00
    -66.069  0.0000E+00  0.0000E+00  0.0000E+00  0.0000E+00  0.0000E+00  0.0000E+00  0.0000E+00  0.0000E+00  0.0000E+00  0.0000E+00  0.0000E+00  0.0000E+00  0.0000E+00  0.0000E+00  0.0000E+00  0.0000E+00  0.0000E+00  0.0000E+00
    -65.810  0.0000E+00  0.0000E+00  0.0000E+00  0.0000E+00  0.0000E+00  0.0000E+00  0.0000E+00  0.0000E+00  0.0000E+00  0.0000E+00  0.0000E+00  0.0000E+00  0.0000E+00  0.0000E+00  0.0000E+00  0.0000E+00  0.0000E+00  0.0000E+00
    -65.552  0.0000E+00  0.0000E+00  0.0000E+00  0.0000E+00  0.0000E+00  0.0000E+00  0.0000E+00  0.0000E+00  0.0000E+00  0.0000E+00  0.0000E+00  0.0000E+00  0.0000E+00  0.0000E+00  0.0000E+00  0.0000E+00  0.0000E+00  0.0000E+00
    -65.293  0.0000E+00  0.0000E+00  0.0000E+00  0.0000E+00  0.0000E+00  0.0000E+00  0.0000E+00  0.0000E+00  0.0000E+00  0.0000E+00  0.0000E+00  0.0000E+00  0.0000E+00  0.0000E+00  0.0000E+00  0.0000E+00  0.0000E+00  0.0000E+00
    -65.035  0.0000E+00  0.0000E+00  0.0000E+00  0.0000E+00  0.0000E+00  0.0000E+00  0.0000E+00  0.0000E+00  0.0000E+00  0.0000E+00  0.0000E+00  0.0000E+00  0.0000E+00  0.0000E+00  0.0000E+00  0.0000E+00  0.0000E+00  0.0000E+00
    -64.776  0.0000E+00  0.0000E+00  0.0000E+00  0.0000E+00  0.0000E+00  0.0000E+00  0.0000E+00  0.0000E+00  0.0000E+00  0.0000E+00  0.0000E+00  0.0000E+00  0.0000E+00  0.0000E+00  0.0000E+00  0.0000E+00  0.0000E+00  0.0000E+00
    -64.518  0.0000E+00  0.0000E+00  0.0000E+00  0.0000E+00  0.0000E+00  0.0000E+00  0.0000E+00  0.0000E+00  0.0000E+00  0.0000E+00  0.0000E+00  0.0000E+00  0.0000E+00  0.0000E+00  0.0000E+00  0.0000E+00  0.0000E+00  0.0000E+00
    -64.259  0.0000E+00  0.0000E+00  0.0000E+00  0.0000E+00  0.0000E+00  0.0000E+00  0.0000E+00  0.0000E+00  0.0000E+00  0.0000E+00  0.0000E+00  0.0000E+00  0.0000E+00  0.0000E+00  0.0000E+00  0.0000E+00  0.0000E+00  0.0000E+00
    -64.001  0.0000E+00  0.0000E+00  0.0000E+00  0.0000E+00  0.0000E+00  0.0000E+00  0.0000E+00  0.0000E+00  0.0000E+00  0.0000E+00  0.0000E+00  0.0000E+00  0.0000E+00  0.0000E+00  0.0000E+00  0.0000E+00  0.0000E+00  0.0000E+00
    -63.742  0.0000E+00  0.0000E+00  0.0000E+00  0.0000E+00  0.0000E+00  0.0000E+00  0.0000E+00  0.0000E+00  0.0000E+00  0.0000E+00  0.0000E+00  0.0000E+00  0.0000E+00  0.0000E+00  0.0000E+00  0.0000E+00  0.0000E+00  0.0000E+00
    -63.484  0.0000E+00  0.0000E+00  0.0000E+00  0.0000E+00  0.0000E+00  0.0000E+00  0.0000E+00  0.0000E+00  0.0000E+00  0.0000E+00  0.0000E+00  0.0000E+00  0.0000E+00  0.0000E+00  0.0000E+00  0.0000E+00  0.0000E+00  0.0000E+00
    -63.226  0.0000E+00  0.0000E+00  0.0000E+00  0.0000E+00  0.0000E+00  0.0000E+00  0.0000E+00  0.0000E+00  0.0000E+00  0.0000E+00  0.0000E+00  0.0000E+00  0.0000E+00  0.0000E+00  0.0000E+00  0.0000E+00  0.0000E+00  0.0000E+00
    -62.967  0.0000E+00  0.0000E+00  0.0000E+00  0.0000E+00  0.0000E+00  0.0000E+00  0.0000E+00  0.0000E+00  0.0000E+00  0.0000E+00  0.0000E+00  0.0000E+00  0.0000E+00  0.0000E+00  0.0000E+00  0.0000E+00  0.0000E+00  0.0000E+00
    -62.709  0.0000E+00  0.0000E+00  0.0000E+00  0.0000E+00  0.0000E+00  0.0000E+00  0.0000E+00  0.0000E+00  0.0000E+00  0.0000E+00  0.0000E+00  0.0000E+00  0.0000E+00  0.0000E+00  0.0000E+00  0.0000E+00  0.0000E+00  0.0000E+00
    -62.450  0.0000E+00  0.0000E+00  0.0000E+00  0.0000E+00  0.0000E+00  0.0000E+00  0.0000E+00  0.0000E+00  0.0000E+00  0.0000E+00  0.0000E+00  0.0000E+00  0.0000E+00  0.0000E+00  0.0000E+00  0.0000E+00  0.0000E+00  0.0000E+00
    -62.192  0.0000E+00  0.0000E+00  0.0000E+00  0.0000E+00  0.0000E+00  0.0000E+00  0.0000E+00  0.0000E+00  0.0000E+00  0.0000E+00  0.0000E+00  0.0000E+00  0.0000E+00  0.0000E+00  0.0000E+00  0.0000E+00  0.0000E+00  0.0000E+00
    -61.933  0.0000E+00  0.0000E+00  0.0000E+00  0.0000E+00  0.0000E+00  0.0000E+00  0.0000E+00  0.0000E+00  0.0000E+00  0.0000E+00  0.0000E+00  0.0000E+00  0.0000E+00  0.0000E+00  0.0000E+00  0.0000E+00  0.0000E+00  0.0000E+00
    -61.675  0.0000E+00  0.0000E+00  0.0000E+00  0.0000E+00  0.0000E+00  0.0000E+00  0.0000E+00  0.0000E+00  0.0000E+00  0.0000E+00  0.0000E+00  0.0000E+00  0.0000E+00  0.0000E+00  0.0000E+00  0.0000E+00  0.0000E+00  0.0000E+00
    -61.416  0.0000E+00  0.0000E+00  0.0000E+00  0.0000E+00  0.0000E+00  0.0000E+00  0.0000E+00  0.0000E+00  0.0000E+00  0.0000E+00  0.0000E+00  0.0000E+00  0.0000E+00  0.0000E+00  0.0000E+00  0.0000E+00  0.0000E+00  0.0000E+00
    -61.158  0.0000E+00  0.0000E+00  0.0000E+00  0.0000E+00  0.0000E+00  0.0000E+00  0.0000E+00  0.0000E+00  0.0000E+00  0.0000E+00  0.0000E+00  0.0000E+00  0.0000E+00  0.0000E+00  0.0000E+00  0.0000E+00  0.0000E+00  0.0000E+00
    -60.899  0.0000E+00  0.0000E+00  0.0000E+00  0.0000E+00  0.0000E+00  0.0000E+00  0.0000E+00  0.0000E+00  0.0000E+00  0.0000E+00  0.0000E+00  0.0000E+00  0.0000E+00  0.0000E+00  0.0000E+00  0.0000E+00  0.0000E+00  0.0000E+00
    -60.641  0.0000E+00  0.0000E+00  0.0000E+00  0.0000E+00  0.0000E+00  0.0000E+00  0.0000E+00  0.0000E+00  0.0000E+00  0.0000E+00  0.0000E+00  0.0000E+00  0.0000E+00  0.0000E+00  0.0000E+00  0.0000E+00  0.0000E+00  0.0000E+00
    -60.382  0.0000E+00  0.0000E+00  0.0000E+00  0.0000E+00  0.0000E+00  0.0000E+00  0.0000E+00  0.0000E+00  0.0000E+00  0.0000E+00  0.0000E+00  0.0000E+00  0.0000E+00  0.0000E+00  0.0000E+00  0.0000E+00  0.0000E+00  0.0000E+00
    -60.124  0.0000E+00  0.0000E+00  0.0000E+00  0.0000E+00  0.0000E+00  0.0000E+00  0.0000E+00  0.0000E+00  0.0000E+00  0.0000E+00  0.0000E+00  0.0000E+00  0.0000E+00  0.0000E+00  0.0000E+00  0.0000E+00  0.0000E+00  0.0000E+00
    -59.865  0.0000E+00  0.0000E+00  0.0000E+00  0.0000E+00  0.0000E+00  0.0000E+00  0.0000E+00  0.0000E+00  0.0000E+00  0.0000E+00  0.0000E+00  0.0000E+00  0.0000E+00  0.0000E+00  0.0000E+00  0.0000E+00  0.0000E+00  0.0000E+00
    -59.607  0.0000E+00  0.0000E+00  0.0000E+00  0.0000E+00  0.0000E+00  0.0000E+00  0.0000E+00  0.0000E+00  0.0000E+00  0.0000E+00  0.0000E+00  0.0000E+00  0.0000E+00  0.0000E+00  0.0000E+00  0.0000E+00  0.0000E+00  0.0000E+00
    -59.348  0.0000E+00  0.0000E+00  0.0000E+00  0.0000E+00  0.0000E+00  0.0000E+00  0.0000E+00  0.0000E+00  0.0000E+00  0.0000E+00  0.0000E+00  0.0000E+00  0.0000E+00  0.0000E+00  0.0000E+00  0.0000E+00  0.0000E+00  0.0000E+00
    -59.090  0.0000E+00  0.0000E+00  0.0000E+00  0.0000E+00  0.0000E+00  0.0000E+00  0.0000E+00  0.0000E+00  0.0000E+00  0.0000E+00  0.0000E+00  0.0000E+00  0.0000E+00  0.0000E+00  0.0000E+00  0.0000E+00  0.0000E+00  0.0000E+00
    -58.831  0.0000E+00  0.0000E+00  0.0000E+00  0.0000E+00  0.0000E+00  0.0000E+00  0.0000E+00  0.0000E+00  0.0000E+00  0.0000E+00  0.0000E+00  0.0000E+00  0.0000E+00  0.0000E+00  0.0000E+00  0.0000E+00  0.0000E+00  0.0000E+00
    -58.573  0.0000E+00  0.0000E+00  0.0000E+00  0.0000E+00  0.0000E+00  0.0000E+00  0.0000E+00  0.0000E+00  0.0000E+00  0.0000E+00  0.0000E+00  0.0000E+00  0.0000E+00  0.0000E+00  0.0000E+00  0.0000E+00  0.0000E+00  0.0000E+00
    -58.315  0.0000E+00  0.0000E+00  0.0000E+00  0.0000E+00  0.0000E+00  0.0000E+00  0.0000E+00  0.0000E+00  0.0000E+00  0.0000E+00  0.0000E+00  0.0000E+00  0.0000E+00  0.0000E+00  0.0000E+00  0.0000E+00  0.0000E+00  0.0000E+00
    -58.056  0.0000E+00  0.0000E+00  0.0000E+00  0.0000E+00  0.0000E+00  0.0000E+00  0.0000E+00  0.0000E+00  0.0000E+00  0.0000E+00  0.0000E+00  0.0000E+00  0.0000E+00  0.0000E+00  0.0000E+00  0.0000E+00  0.0000E+00  0.0000E+00
    -57.798  0.0000E+00  0.0000E+00  0.0000E+00  0.0000E+00  0.0000E+00  0.0000E+00  0.0000E+00  0.0000E+00  0.0000E+00  0.0000E+00  0.0000E+00  0.0000E+00  0.0000E+00  0.0000E+00  0.0000E+00  0.0000E+00  0.0000E+00  0.0000E+00
    -57.539  0.0000E+00  0.0000E+00  0.0000E+00  0.0000E+00  0.0000E+00  0.0000E+00  0.0000E+00  0.0000E+00  0.0000E+00  0.0000E+00  0.0000E+00  0.0000E+00  0.0000E+00  0.0000E+00  0.0000E+00  0.0000E+00  0.0000E+00  0.0000E+00
    -57.281  0.0000E+00  0.0000E+00  0.0000E+00  0.0000E+00  0.0000E+00  0.0000E+00  0.0000E+00  0.0000E+00  0.0000E+00  0.0000E+00  0.0000E+00  0.0000E+00  0.0000E+00  0.0000E+00  0.0000E+00  0.0000E+00  0.0000E+00  0.0000E+00
    -57.022  0.0000E+00  0.0000E+00  0.0000E+00  0.0000E+00  0.0000E+00  0.0000E+00  0.0000E+00  0.0000E+00  0.0000E+00  0.0000E+00  0.0000E+00  0.0000E+00  0.0000E+00  0.0000E+00  0.0000E+00  0.0000E+00  0.0000E+00  0.0000E+00
    -56.764  0.0000E+00  0.0000E+00  0.0000E+00  0.0000E+00  0.0000E+00  0.0000E+00  0.0000E+00  0.0000E+00  0.0000E+00  0.0000E+00  0.0000E+00  0.0000E+00  0.0000E+00  0.0000E+00  0.0000E+00  0.0000E+00  0.0000E+00  0.0000E+00
    -56.505  0.0000E+00  0.0000E+00  0.0000E+00  0.0000E+00  0.0000E+00  0.0000E+00  0.0000E+00  0.0000E+00  0.0000E+00  0.0000E+00  0.0000E+00  0.0000E+00  0.0000E+00  0.0000E+00  0.0000E+00  0.0000E+00  0.0000E+00  0.0000E+00
    -56.247  0.0000E+00  0.0000E+00  0.0000E+00  0.0000E+00  0.0000E+00  0.0000E+00  0.0000E+00  0.0000E+00  0.0000E+00  0.0000E+00  0.0000E+00  0.0000E+00  0.0000E+00  0.0000E+00  0.0000E+00  0.0000E+00  0.0000E+00  0.0000E+00
    -55.988  0.0000E+00  0.0000E+00  0.0000E+00  0.0000E+00  0.0000E+00  0.0000E+00  0.0000E+00  0.0000E+00  0.0000E+00  0.0000E+00  0.0000E+00  0.0000E+00  0.0000E+00  0.0000E+00  0.0000E+00  0.0000E+00  0.0000E+00  0.0000E+00
    -55.730  0.0000E+00  0.0000E+00  0.0000E+00  0.0000E+00  0.0000E+00  0.0000E+00  0.0000E+00  0.0000E+00  0.0000E+00  0.0000E+00  0.0000E+00  0.0000E+00  0.0000E+00  0.0000E+00  0.0000E+00  0.0000E+00  0.0000E+00  0.0000E+00
    -55.471  0.0000E+00  0.0000E+00  0.0000E+00  0.0000E+00  0.0000E+00  0.0000E+00  0.0000E+00  0.0000E+00  0.0000E+00  0.0000E+00  0.0000E+00  0.0000E+00  0.0000E+00  0.0000E+00  0.0000E+00  0.0000E+00  0.0000E+00  0.0000E+00
    -55.213  0.0000E+00  0.0000E+00  0.0000E+00  0.0000E+00  0.0000E+00  0.0000E+00  0.0000E+00  0.0000E+00  0.0000E+00  0.0000E+00  0.0000E+00  0.0000E+00  0.0000E+00  0.0000E+00  0.0000E+00  0.0000E+00  0.0000E+00  0.0000E+00
    -54.954  0.0000E+00  0.0000E+00  0.0000E+00  0.0000E+00  0.0000E+00  0.0000E+00  0.0000E+00  0.0000E+00  0.0000E+00  0.0000E+00  0.0000E+00  0.0000E+00  0.0000E+00  0.0000E+00  0.0000E+00  0.0000E+00  0.0000E+00  0.0000E+00