   3   3   1   0
  0.9324195E+02  0.3184691E-09  0.3184691E-09  0.3184691E-08  0.5000000E-15
  1.000000000000000E-004
  CAR 
 Ultrathin TMD Valleytronics             
      7.67123153    -67.78187129  301     -3.33234596      1.00000000
    -67.782  0.0000E+00  0.0000E+00
    -67.530  0.0000E+00  0.0000E+00
    -67.279  0.0000E+00  0.0000E+00
    -67.027  0.0000E+00  0.0000E+00
    -66.776  0.0000E+00  0.0000E+00
    -66.524  0.0000E+00  0.0000E+00
    -66.273  0.0000E+00  0.0000E+00
    -66.021  0.0000E+00  0.0000E+00
    -65.770  0.0000E+00  0.0000E+00
    -65.518  0.0000E+00  0.0000E+00
    -65.267  0.0000E+00  0.0000E+00
    -65.015  0.0000E+00  0.0000E+00
    -64.764  0.0000E+00  0.0000E+00
    -64.512  0.0000E+00  0.0000E+00
    -64.261  0.0000E+00  0.2000E+01
    -64.009  0.0000E+00  0.2000E+01
    -63.758  0.0000E+00  0.2000E+01
    -63.506  0.0000E+00  0.2000E+01
    -63.255  0.0000E+00  0.2000E+01
    -63.003  0.0000E+00  0.2000E+01
    -62.752  0.0000E+00  0.2000E+01
    -62.500  0.0000E+00  0.2000E+01
    -62.249  0.0000E+00  0.2000E+01
    -61.997  0.0000E+00  0.2000E+01
    -61.746  0.0000E+00  0.2000E+01
    -61.494  0.0000E+00  0.2000E+01
    -61.243  0.0000E+00  0.2000E+01
    -60.991  0.0000E+00  0.2000E+01
    -60.740  0.0000E+00  0.2000E+01
    -60.488  0.0000E+00  0.2000E+01
    -60.237  0.0000E+00  0.2000E+01
    -59.985  0.0000E+00  0.2000E+01
    -59.734  0.0000E+00  0.2000E+01
    -59.482  0.0000E+00  0.2000E+01
    -59.231  0.0000E+00  0.2000E+01
    -58.979  0.0000E+00  0.2000E+01
    -58.727  0.0000E+00  0.2000E+01
    -58.476  0.0000E+00  0.2000E+01
    -58.224  0.0000E+00  0.2000E+01
    -57.973  0.0000E+00  0.2000E+01
    -57.721  0.0000E+00  0.2000E+01
    -57.470  0.0000E+00  0.2000E+01
    -57.218  0.0000E+00  0.2000E+01
    -56.967  0.0000E+00  0.2000E+01
    -56.715  0.0000E+00  0.2000E+01
    -56.464  0.0000E+00  0.2000E+01
    -56.212  0.0000E+00  0.2000E+01
    -55.961  0.0000E+00  0.2000E+01
    -55.709  0.0000E+00  0.2000E+01
    -55.458  0.0000E+00  0.2000E+01
    -55.206  0.0000E+00  0.2000E+01
    -54.955  0.0000E+00  0.2000E+01
    -54.703  0.0000E+00  0.2000E+01
    -54.452  0.0000E+00  0.2000E+01
    -54.200  0.0000E+00  0.2000E+01
    -53.949  0.0000E+00  0.2000E+01
    -53.697  0.0000E+00  0.2000E+01
    -53.446  0.0000E+00  0.2000E+01
    -53.194  0.0000E+00  0.2000E+01
    -52.943  0.0000E+00  0.2000E+01
    -52.691  0.0000E+00  0.2000E+01
    -52.440  0.0000E+00  0.2000E+01
    -52.188  0.0000E+00  0.2000E+01
    -51.937  0.0000E+00  0.2000E+01
    -51.685  0.0000E+00  0.2000E+01
    -51.434  0.0000E+00  0.2000E+01
    -51.182  0.0000E+00  0.2000E+01
    -50.931  0.0000E+00  0.2000E+01
    -50.679  0.0000E+00  0.2000E+01
    -50.428  0.0000E+00  0.2000E+01
    -50.176  0.0000E+00  0.2000E+01
    -49.925  0.0000E+00  0.2000E+01
    -49.673  0.0000E+00  0.2000E+01
    -49.422  0.0000E+00  0.2000E+01
    -49.170  0.0000E+00  0.2000E+01
    -48.919  0.0000E+00  0.2000E+01
    -48.667  0.0000E+00  0.2000E+01
    -48.416  0.0000E+00  0.2000E+01
    -48.164  0.0000E+00  0.2000E+01
    -47.913  0.0000E+00  0.2000E+01
    -47.661  0.0000E+00  0.2000E+01
    -47.410  0.0000E+00  0.2000E+01
    -47.158  0.0000E+00  0.2000E+01
    -46.907  0.0000E+00  0.2000E+01
    -46.655  0.0000E+00  0.2000E+01
    -46.403  0.0000E+00  0.2000E+01
    -46.152  0.0000E+00  0.2000E+01
    -45.900  0.0000E+00  0.2000E+01
    -45.649  0.0000E+00  0.2000E+01
    -45.397  0.0000E+00  0.2000E+01
    -45.146  0.0000E+00  0.2000E+01
    -44.894  0.0000E+00  0.2000E+01
    -44.643  0.0000E+00  0.2000E+01
    -44.391  0.0000E+00  0.2000E+01
    -44.140  0.0000E+00  0.2000E+01
    -43.888  0.0000E+00  0.2000E+01
    -43.637  0.0000E+00  0.2000E+01
    -43.385  0.0000E+00  0.2000E+01
    -43.134  0.0000E+00  0.2000E+01
    -42.882  0.0000E+00  0.2000E+01
    -42.631  0.0000E+00  0.2000E+01
    -42.379  0.0000E+00  0.2000E+01
    -42.128  0.0000E+00  0.2000E+01
    -41.876  0.0000E+00  0.2000E+01
    -41.625  0.0000E+00  0.2000E+01
    -41.373  0.0000E+00  0.2000E+01
    -41.122  0.0000E+00  0.2000E+01
    -40.870  0.0000E+00  0.2000E+01
    -40.619  0.0000E+00  0.2000E+01
    -40.367  0.0000E+00  0.2000E+01
    -40.116  0.1976E+02  0.2263E+01
    -39.864  0.0000E+00  0.4000E+01
    -39.613  0.0000E+00  0.4000E+01
    -39.361  0.0000E+00  0.4000E+01
    -39.110  0.0000E+00  0.4000E+01
    -38.858  0.0000E+00  0.4000E+01
    -38.607  0.0000E+00  0.4000E+01
    -38.355  0.0000E+00  0.4000E+01
    -38.104  0.0000E+00  0.4000E+01
    -37.852  0.0000E+00  0.4000E+01
    -37.601  0.4328E+02  0.7075E+01
    -37.349  0.0000E+00  0.8000E+01
    -37.098  0.0000E+00  0.8000E+01
    -36.846  0.0000E+00  0.8000E+01
    -36.595  0.0000E+00  0.8000E+01
    -36.343  0.0000E+00  0.8000E+01
    -36.092  0.0000E+00  0.8000E+01
    -35.840  0.0000E+00  0.8000E+01
    -35.589  0.0000E+00  0.8000E+01
    -35.337  0.0000E+00  0.8000E+01
    -35.086  0.0000E+00  0.8000E+01
    -34.834  0.0000E+00  0.8000E+01
    -34.583  0.0000E+00  0.8000E+01
    -34.331  0.0000E+00  0.8000E+01
    -34.079  0.0000E+00  0.8000E+01
    -33.828  0.0000E+00  0.8000E+01
    -33.576  0.0000E+00  0.8000E+01
    -33.325  0.0000E+00  0.8000E+01
    -33.073  0.0000E+00  0.8000E+01
    -32.822  0.0000E+00  0.8000E+01
    -32.570  0.0000E+00  0.8000E+01
    -32.319  0.0000E+00  0.8000E+01
    -32.067  0.0000E+00  0.8000E+01
    -31.816  0.0000E+00  0.8000E+01
    -31.564  0.0000E+00  0.8000E+01
    -31.313  0.0000E+00  0.8000E+01
    -31.061  0.0000E+00  0.8000E+01
    -30.810  0.0000E+00  0.8000E+01
    -30.558  0.0000E+00  0.8000E+01
    -30.307  0.0000E+00  0.8000E+01
    -30.055  0.0000E+00  0.8000E+01
    -29.804  0.0000E+00  0.8000E+01
    -29.552  0.0000E+00  0.8000E+01
    -29.301  0.0000E+00  0.8000E+01
    -29.049  0.0000E+00  0.8000E+01
    -28.798  0.0000E+00  0.8000E+01
    -28.546  0.0000E+00  0.8000E+01
    -28.295  0.0000E+00  0.8000E+01
    -28.043  0.0000E+00  0.8000E+01
    -27.792  0.0000E+00  0.8000E+01
    -27.540  0.0000E+00  0.8000E+01
    -27.289  0.0000E+00  0.8000E+01
    -27.037  0.0000E+00  0.8000E+01
    -26.786  0.0000E+00  0.8000E+01
    -26.534  0.0000E+00  0.8000E+01
    -26.283  0.0000E+00  0.8000E+01
    -26.031  0.0000E+00  0.8000E+01
    -25.780  0.0000E+00  0.8000E+01
    -25.528  0.0000E+00  0.8000E+01
    -25.277  0.0000E+00  0.8000E+01
    -25.025  0.0000E+00  0.8000E+01
    -24.774  0.0000E+00  0.8000E+01
    -24.522  0.0000E+00  0.8000E+01
    -24.271  0.0000E+00  0.8000E+01
    -24.019  0.0000E+00  0.8000E+01
    -23.768  0.0000E+00  0.8000E+01
    -23.516  0.0000E+00  0.8000E+01
    -23.265  0.0000E+00  0.8000E+01
    -23.013  0.0000E+00  0.8000E+01
    -22.762  0.0000E+00  0.8000E+01
    -22.510  0.0000E+00  0.8000E+01
    -22.258  0.0000E+00  0.8000E+01
    -22.007  0.0000E+00  0.8000E+01
    -21.755  0.0000E+00  0.8000E+01
    -21.504  0.0000E+00  0.8000E+01
    -21.252  0.0000E+00  0.8000E+01
    -21.001  0.0000E+00  0.8000E+01
    -20.749  0.0000E+00  0.8000E+01
    -20.498  0.0000E+00  0.8000E+01
    -20.246  0.0000E+00  0.8000E+01
    -19.995  0.0000E+00  0.8000E+01
    -19.743  0.0000E+00  0.8000E+01
    -19.492  0.0000E+00  0.8000E+01
    -19.240  0.0000E+00  0.8000E+01
    -18.989  0.0000E+00  0.8000E+01
    -18.737  0.0000E+00  0.8000E+01
    -18.486  0.0000E+00  0.8000E+01
    -18.234  0.0000E+00  0.8000E+01
    -17.983  0.0000E+00  0.8000E+01
    -17.731  0.0000E+00  0.8000E+01
    -17.480  0.3231E+00  0.8011E+01
    -17.228  0.5131E+00  0.8142E+01
    -16.977  0.6021E+00  0.8286E+01
    -16.725  0.6447E+00  0.8439E+01
    -16.474  0.7392E+00  0.8612E+01
    -16.222  0.1598E+01  0.8828E+01
    -15.971  0.2546E+01  0.9418E+01
    -15.719  0.4901E+01  0.1033E+02
    -15.468  0.3874E+01  0.1166E+02
    -15.216  0.0000E+00  0.1200E+02
    -14.965  0.0000E+00  0.1200E+02
    -14.713  0.0000E+00  0.1200E+02
    -14.462  0.0000E+00  0.1200E+02
    -14.210  0.0000E+00  0.1200E+02
    -13.959  0.0000E+00  0.1200E+02
    -13.707  0.0000E+00  0.1200E+02
    -13.456  0.0000E+00  0.1200E+02
    -13.204  0.0000E+00  0.1200E+02
    -12.953  0.0000E+00  0.1200E+02
    -12.701  0.0000E+00  0.1200E+02
    -12.450  0.0000E+00  0.1200E+02
    -12.198  0.0000E+00  0.1200E+02
    -11.947  0.0000E+00  0.1200E+02
    -11.695  0.0000E+00  0.1200E+02
    -11.444  0.0000E+00  0.1200E+02
    -11.192  0.0000E+00  0.1200E+02
    -10.941  0.0000E+00  0.1200E+02
    -10.689  0.0000E+00  0.1200E+02
    -10.438  0.0000E+00  0.1200E+02
    -10.186  0.0000E+00  0.1200E+02
     -9.934  0.0000E+00  0.1200E+02
     -9.683  0.0000E+00  0.1200E+02
     -9.431  0.0000E+00  0.1200E+02
     -9.180  0.0000E+00  0.1200E+02
     -8.928  0.1909E+01  0.1233E+02
     -8.677  0.4077E+01  0.1301E+02
     -8.425  0.1363E+01  0.1423E+02
     -8.174  0.2414E+01  0.1468E+02
     -7.922  0.8767E+00  0.1497E+02
     -7.671  0.7127E+00  0.1517E+02
     -7.419  0.4448E+01  0.1565E+02
     -7.168  0.3241E+01  0.1701E+02
     -6.916  0.1097E+01  0.1736E+02
     -6.665  0.4385E+01  0.1784E+02
     -6.413  0.3957E+01  0.1911E+02
     -6.162  0.1471E+01  0.1967E+02
     -5.910  0.4473E+01  0.2010E+02
     -5.659  0.8615E+00  0.2051E+02
     -5.407  0.4457E+01  0.2111E+02
     -5.156  0.2681E+01  0.2242E+02
     -4.904  0.1972E+01  0.2285E+02
     -4.653  0.2856E+01  0.2351E+02
     -4.401  0.6748E+00  0.2401E+02
     -4.150  0.3819E+01  0.2473E+02
     -3.898  0.2268E+01  0.2543E+02
     -3.647  0.1024E+01  0.2585E+02
     -3.395  0.0000E+00  0.2600E+02
     -3.144  0.0000E+00  0.2600E+02
     -2.892  0.0000E+00  0.2600E+02
     -2.641  0.0000E+00  0.2600E+02
     -2.389  0.0000E+00  0.2600E+02
     -2.138  0.0000E+00  0.2600E+02
     -1.886  0.0000E+00  0.2600E+02
     -1.635  0.4105E+00  0.2604E+02
     -1.383  0.6616E+01  0.2663E+02
     -1.132  0.7008E+00  0.2783E+02
     -0.880  0.4362E+01  0.2908E+02
     -0.629  0.2979E+01  0.3014E+02
     -0.377  0.2509E+01  0.3084E+02
     -0.126  0.2304E+01  0.3154E+02
      0.126  0.1627E+01  0.3202E+02
      0.377  0.7304E+00  0.3245E+02
      0.629  0.1522E+01  0.3267E+02
      0.880  0.1691E+01  0.3347E+02
      1.132  0.1215E+01  0.3384E+02
      1.383  0.8657E-01  0.3400E+02
      1.635  0.0000E+00  0.3400E+02
      1.886  0.0000E+00  0.3400E+02
      2.138  0.1639E+00  0.3402E+02
      2.390  0.1752E+00  0.3406E+02
      2.641  0.2098E+00  0.3411E+02
      2.893  0.8853E+00  0.3417E+02
      3.144  0.5417E+00  0.3432E+02
      3.396  0.6878E+00  0.3447E+02
      3.647  0.1581E+01  0.3476E+02
      3.899  0.3456E+00  0.3494E+02
      4.150  0.9213E-01  0.3500E+02
      4.402  0.0000E+00  0.3500E+02
      4.653  0.0000E+00  0.3500E+02
      4.905  0.0000E+00  0.3500E+02
      5.156  0.0000E+00  0.3500E+02
      5.408  0.0000E+00  0.3500E+02
      5.659  0.0000E+00  0.3500E+02
      5.911  0.0000E+00  0.3500E+02
      6.162  0.0000E+00  0.3500E+02
      6.414  0.0000E+00  0.3500E+02
      6.665  0.0000E+00  0.3500E+02
      6.917  0.0000E+00  0.3500E+02
      7.168  0.0000E+00  0.3500E+02
      7.420  0.0000E+00  0.3500E+02
      7.671  0.0000E+00  0.3500E+02
      7.67123153    -67.78187129  301     -3.33234596      1.00000000
    -67.782  0.0000E+00  0.0000E+00  0.0000E+00  0.0000E+00  0.0000E+00  0.0000E+00  0.0000E+00  0.0000E+00  0.0000E+00  0.0000E+00  0.0000E+00  0.0000E+00  0.0000E+00  0.0000E+00  0.0000E+00  0.0000E+00  0.0000E+00  0.0000E+00  0.0000E+00  0.0000E+00  0.0000E+00  0.0000E+00  0.0000E+00  0.0000E+00  0.0000E+00  0.0000E+00  0.0000E+00  0.0000E+00  0.0000E+00  0.0000E+00  0.0000E+00  0.0000E+00  0.0000E+00  0.0000E+00  0.0000E+00  0.0000E+00
    -67.530  0.0000E+00  0.0000E+00  0.0000E+00  0.0000E+00  0.0000E+00  0.0000E+00  0.0000E+00  0.0000E+00  0.0000E+00  0.0000E+00  0.0000E+00  0.0000E+00  0.0000E+00  0.0000E+00  0.0000E+00  0.0000E+00  0.0000E+00  0.0000E+00  0.0000E+00  0.0000E+00  0.0000E+00  0.0000E+00  0.0000E+00  0.0000E+00  0.0000E+00  0.0000E+00  0.0000E+00  0.0000E+00  0.0000E+00  0.0000E+00  0.0000E+00  0.0000E+00  0.0000E+00  0.0000E+00  0.0000E+00  0.0000E+00
    -67.279  0.0000E+00  0.0000E+00  0.0000E+00  0.0000E+00  0.0000E+00  0.0000E+00  0.0000E+00  0.0000E+00  0.0000E+00  0.0000E+00  0.0000E+00  0.0000E+00  0.0000E+00  0.0000E+00  0.0000E+00  0.0000E+00  0.0000E+00  0.0000E+00  0.0000E+00  0.0000E+00  0.0000E+00  0.0000E+00  0.0000E+00  0.0000E+00  0.0000E+00  0.0000E+00  0.0000E+00  0.0000E+00  0.0000E+00  0.0000E+00  0.0000E+00  0.0000E+00  0.0000E+00  0.0000E+00  0.0000E+00  0.0000E+00
    -67.027  0.0000E+00  0.0000E+00  0.0000E+00  0.0000E+00  0.0000E+00  0.0000E+00  0.0000E+00  0.0000E+00  0.0000E+00  0.0000E+00  0.0000E+00  0.0000E+00  0.0000E+00  0.0000E+00  0.0000E+00  0.0000E+00  0.0000E+00  0.0000E+00  0.0000E+00  0.0000E+00  0.0000E+00  0.0000E+00  0.0000E+00  0.0000E+00  0.0000E+00  0.0000E+00  0.0000E+00  0.0000E+00  0.0000E+00  0.0000E+00  0.0000E+00  0.0000E+00  0.0000E+00  0.0000E+00  0.0000E+00  0.0000E+00
    -66.776  0.0000E+00  0.0000E+00  0.0000E+00  0.0000E+00  0.0000E+00  0.0000E+00  0.0000E+00  0.0000E+00  0.0000E+00  0.0000E+00  0.0000E+00  0.0000E+00  0.0000E+00  0.0000E+00  0.0000E+00  0.0000E+00  0.0000E+00  0.0000E+00  0.0000E+00  0.0000E+00  0.0000E+00  0.0000E+00  0.0000E+00  0.0000E+00  0.0000E+00  0.0000E+00  0.0000E+00  0.0000E+00  0.0000E+00  0.0000E+00  0.0000E+00  0.0000E+00  0.0000E+00  0.0000E+00  0.0000E+00  0.0000E+00
    -66.524  0.0000E+00  0.0000E+00  0.0000E+00  0.0000E+00  0.0000E+00  0.0000E+00  0.0000E+00  0.0000E+00  0.0000E+00  0.0000E+00  0.0000E+00  0.0000E+00  0.0000E+00  0.0000E+00  0.0000E+00  0.0000E+00  0.0000E+00  0.0000E+00  0.0000E+00  0.0000E+00  0.0000E+00  0.0000E+00  0.0000E+00  0.0000E+00  0.0000E+00  0.0000E+00  0.0000E+00  0.0000E+00  0.0000E+00  0.0000E+00  0.0000E+00  0.0000E+00  0.0000E+00  0.0000E+00  0.0000E+00  0.0000E+00
    -66.273  0.0000E+00  0.0000E+00  0.0000E+00  0.0000E+00  0.0000E+00  0.0000E+00  0.0000E+00  0.0000E+00  0.0000E+00  0.0000E+00  0.0000E+00  0.0000E+00  0.0000E+00  0.0000E+00  0.0000E+00  0.0000E+00  0.0000E+00  0.0000E+00  0.0000E+00  0.0000E+00  0.0000E+00  0.0000E+00  0.0000E+00  0.0000E+00  0.0000E+00  0.0000E+00  0.0000E+00  0.0000E+00  0.0000E+00  0.0000E+00  0.0000E+00  0.0000E+00  0.0000E+00  0.0000E+00  0.0000E+00  0.0000E+00
    -66.021  0.0000E+00  0.0000E+00  0.0000E+00  0.0000E+00  0.0000E+00  0.0000E+00  0.0000E+00  0.0000E+00  0.0000E+00  0.0000E+00  0.0000E+00  0.0000E+00  0.0000E+00  0.0000E+00  0.0000E+00  0.0000E+00  0.0000E+00  0.0000E+00  0.0000E+00  0.0000E+00  0.0000E+00  0.0000E+00  0.0000E+00  0.0000E+00  0.0000E+00  0.0000E+00  0.0000E+00  0.0000E+00  0.0000E+00  0.0000E+00  0.0000E+00  0.0000E+00  0.0000E+00  0.0000E+00  0.0000E+00  0.0000E+00
    -65.770  0.0000E+00  0.0000E+00  0.0000E+00  0.0000E+00  0.0000E+00  0.0000E+00  0.0000E+00  0.0000E+00  0.0000E+00  0.0000E+00  0.0000E+00  0.0000E+00  0.0000E+00  0.0000E+00  0.0000E+00  0.0000E+00  0.0000E+00  0.0000E+00  0.0000E+00  0.0000E+00  0.0000E+00  0.0000E+00  0.0000E+00  0.0000E+00  0.0000E+00  0.0000E+00  0.0000E+00  0.0000E+00  0.0000E+00  0.0000E+00  0.0000E+00  0.0000E+00  0.0000E+00  0.0000E+00  0.0000E+00  0.0000E+00
    -65.518  0.0000E+00  0.0000E+00  0.0000E+00  0.0000E+00  0.0000E+00  0.0000E+00  0.0000E+00  0.0000E+00  0.0000E+00  0.0000E+00  0.0000E+00  0.0000E+00  0.0000E+00  0.0000E+00  0.0000E+00  0.0000E+00  0.0000E+00  0.0000E+00  0.0000E+00  0.0000E+00  0.0000E+00  0.0000E+00  0.0000E+00  0.0000E+00  0.0000E+00  0.0000E+00  0.0000E+00  0.0000E+00  0.0000E+00  0.0000E+00  0.0000E+00  0.0000E+00  0.0000E+00  0.0000E+00  0.0000E+00  0.0000E+00
    -65.267  0.0000E+00  0.0000E+00  0.0000E+00  0.0000E+00  0.0000E+00  0.0000E+00  0.0000E+00  0.0000E+00  0.0000E+00  0.0000E+00  0.0000E+00  0.0000E+00  0.0000E+00  0.0000E+00  0.0000E+00  0.0000E+00  0.0000E+00  0.0000E+00  0.0000E+00  0.0000E+00  0.0000E+00  0.0000E+00  0.0000E+00  0.0000E+00  0.0000E+00  0.0000E+00  0.0000E+00  0.0000E+00  0.0000E+00  0.0000E+00  0.0000E+00  0.0000E+00  0.0000E+00  0.0000E+00  0.0000E+00  0.0000E+00
    -65.015  0.0000E+00  0.0000E+00  0.0000E+00  0.0000E+00  0.0000E+00  0.0000E+00  0.0000E+00  0.0000E+00  0.0000E+00  0.0000E+00  0.0000E+00  0.0000E+00  0.0000E+00  0.0000E+00  0.0000E+00  0.0000E+00  0.0000E+00  0.0000E+00  0.0000E+00  0.0000E+00  0.0000E+00  0.0000E+00  0.0000E+00  0.0000E+00  0.0000E+00  0.0000E+00  0.0000E+00  0.0000E+00  0.0000E+00  0.0000E+00  0.0000E+00  0.0000E+00  0.0000E+00  0.0000E+00  0.0000E+00  0.0000E+00
    -64.764  0.0000E+00  0.0000E+00  0.0000E+00  0.0000E+00  0.0000E+00  0.0000E+00  0.0000E+00  0.0000E+00  0.0000E+00  0.0000E+00  0.0000E+00  0.0000E+00  0.0000E+00  0.0000E+00  0.0000E+00  0.0000E+00  0.0000E+00  0.0000E+00  0.0000E+00  0.0000E+00  0.0000E+00  0.0000E+00  0.0000E+00  0.0000E+00  0.0000E+00  0.0000E+00  0.0000E+00  0.0000E+00  0.0000E+00  0.0000E+00  0.0000E+00  0.0000E+00  0.0000E+00  0.0000E+00  0.0000E+00  0.0000E+00
    -64.512  0.0000E+00  0.0000E+00  0.0000E+00  0.0000E+00  0.0000E+00  0.0000E+00  0.0000E+00  0.0000E+00  0.0000E+00  0.0000E+00  0.0000E+00  0.0000E+00  0.0000E+00  0.0000E+00  0.0000E+00  0.0000E+00  0.0000E+00  0.0000E+00  0.0000E+00  0.0000E+00  0.0000E+00  0.0000E+00  0.0000E+00  0.0000E+00  0.0000E+00  0.0000E+00  0.0000E+00  0.0000E+00  0.0000E+00  0.0000E+00  0.0000E+00  0.0000E+00  0.0000E+00  0.0000E+00  0.0000E+00  0.0000E+00
    -64.261  0.0000E+00  0.0000E+00  0.0000E+00  0.0000E+00  0.0000E+00  0.0000E+00  0.0000E+00  0.0000E+00  0.0000E+00  0.0000E+00  0.0000E+00  0.0000E+00  0.0000E+00  0.0000E+00  0.0000E+00  0.0000E+00  0.0000E+00  0.0000E+00  0.0000E+00  0.0000E+00  0.0000E+00  0.0000E+00  0.0000E+00  0.0000E+00  0.0000E+00  0.0000E+00  0.0000E+00  0.0000E+00  0.0000E+00  0.0000E+00  0.0000E+00  0.0000E+00  0.0000E+00  0.0000E+00  0.0000E+00  0.0000E+00
    -64.009  0.0000E+00  0.0000E+00  0.0000E+00  0.0000E+00  0.0000E+00  0.0000E+00  0.0000E+00  0.0000E+00  0.0000E+00  0.0000E+00  0.0000E+00  0.0000E+00  0.0000E+00  0.0000E+00  0.0000E+00  0.0000E+00  0.0000E+00  0.0000E+00  0.0000E+00  0.0000E+00  0.0000E+00  0.0000E+00  0.0000E+00  0.0000E+00  0.0000E+00  0.0000E+00  0.0000E+00  0.0000E+00  0.0000E+00  0.0000E+00  0.0000E+00  0.0000E+00  0.0000E+00  0.0000E+00  0.0000E+00  0.0000E+00
    -63.758  0.0000E+00  0.0000E+00  0.0000E+00  0.0000E+00  0.0000E+00  0.0000E+00  0.0000E+00  0.0000E+00  0.0000E+00  0.0000E+00  0.0000E+00  0.0000E+00  0.0000E+00  0.0000E+00  0.0000E+00  0.0000E+00  0.0000E+00  0.0000E+00  0.0000E+00  0.0000E+00  0.0000E+00  0.0000E+00  0.0000E+00  0.0000E+00  0.0000E+00  0.0000E+00  0.0000E+00  0.0000E+00  0.0000E+00  0.0000E+00  0.0000E+00  0.0000E+00  0.0000E+00  0.0000E+00  0.0000E+00  0.0000E+00
    -63.506  0.0000E+00  0.0000E+00  0.0000E+00  0.0000E+00  0.0000E+00  0.0000E+00  0.0000E+00  0.0000E+00  0.0000E+00  0.0000E+00  0.0000E+00  0.0000E+00  0.0000E+00  0.0000E+00  0.0000E+00  0.0000E+00  0.0000E+00  0.0000E+00  0.0000E+00  0.0000E+00  0.0000E+00  0.0000E+00  0.0000E+00  0.0000E+00  0.0000E+00  0.0000E+00  0.0000E+00  0.0000E+00  0.0000E+00  0.0000E+00  0.0000E+00  0.0000E+00  0.0000E+00  0.0000E+00  0.0000E+00  0.0000E+00
    -63.255  0.0000E+00  0.0000E+00  0.0000E+00  0.0000E+00  0.0000E+00  0.0000E+00  0.0000E+00  0.0000E+00  0.0000E+00  0.0000E+00  0.0000E+00  0.0000E+00  0.0000E+00  0.0000E+00  0.0000E+00  0.0000E+00  0.0000E+00  0.0000E+00  0.0000E+00  0.0000E+00  0.0000E+00  0.0000E+00  0.0000E+00  0.0000E+00  0.0000E+00  0.0000E+00  0.0000E+00  0.0000E+00  0.0000E+00  0.0000E+00  0.0000E+00  0.0000E+00  0.0000E+00  0.0000E+00  0.0000E+00  0.0000E+00
    -63.003  0.0000E+00  0.0000E+00  0.0000E+00  0.0000E+00  0.0000E+00  0.0000E+00  0.0000E+00  0.0000E+00  0.0000E+00  0.0000E+00  0.0000E+00  0.0000E+00  0.0000E+00  0.0000E+00  0.0000E+00  0.0000E+00  0.0000E+00  0.0000E+00  0.0000E+00  0.0000E+00  0.0000E+00  0.0000E+00  0.0000E+00  0.0000E+00  0.0000E+00  0.0000E+00  0.0000E+00  0.0000E+00  0.0000E+00  0.0000E+00  0.0000E+00  0.0000E+00  0.0000E+00  0.0000E+00  0.0000E+00  0.0000E+00
    -62.752  0.0000E+00  0.0000E+00  0.0000E+00  0.0000E+00  0.0000E+00  0.0000E+00  0.0000E+00  0.0000E+00  0.0000E+00  0.0000E+00  0.0000E+00  0.0000E+00  0.0000E+00  0.0000E+00  0.0000E+00  0.0000E+00  0.0000E+00  0.0000E+00  0.0000E+00  0.0000E+00  0.0000E+00  0.0000E+00  0.0000E+00  0.0000E+00  0.0000E+00  0.0000E+00  0.0000E+00  0.0000E+00  0.0000E+00  0.0000E+00  0.0000E+00  0.0000E+00  0.0000E+00  0.0000E+00  0.0000E+00  0.0000E+00
    -62.500  0.0000E+00  0.0000E+00  0.0000E+00  0.0000E+00  0.0000E+00  0.0000E+00  0.0000E+00  0.0000E+00  0.0000E+00  0.0000E+00  0.0000E+00  0.0000E+00  0.0000E+00  0.0000E+00  0.0000E+00  0.0000E+00  0.0000E+00  0.0000E+00  0.0000E+00  0.0000E+00  0.0000E+00  0.0000E+00  0.0000E+00  0.0000E+00  0.0000E+00  0.0000E+00  0.0000E+00  0.0000E+00  0.0000E+00  0.0000E+00  0.0000E+00  0.0000E+00  0.0000E+00  0.0000E+00  0.0000E+00  0.0000E+00
    -62.249  0.0000E+00  0.0000E+00  0.0000E+00  0.0000E+00  0.0000E+00  0.0000E+00  0.0000E+00  0.0000E+00  0.0000E+00  0.0000E+00  0.0000E+00  0.0000E+00  0.0000E+00  0.0000E+00  0.0000E+00  0.0000E+00  0.0000E+00  0.0000E+00  0.0000E+00  0.0000E+00  0.0000E+00  0.0000E+00  0.0000E+00  0.0000E+00  0.0000E+00  0.0000E+00  0.0000E+00  0.0000E+00  0.0000E+00  0.0000E+00  0.0000E+00  0.0000E+00  0.0000E+00  0.0000E+00  0.0000E+00  0.0000E+00
    -61.997  0.0000E+00  0.0000E+00  0.0000E+00  0.0000E+00  0.0000E+00  0.0000E+00  0.0000E+00  0.0000E+00  0.0000E+00  0.0000E+00  0.0000E+00  0.0000E+00  0.0000E+00  0.0000E+00  0.0000E+00  0.0000E+00  0.0000E+00  0.0000E+00  0.0000E+00  0.0000E+00  0.0000E+00  0.0000E+00  0.0000E+00  0.0000E+00  0.0000E+00  0.0000E+00  0.0000E+00  0.0000E+00  0.0000E+00  0.0000E+00  0.0000E+00  0.0000E+00  0.0000E+00  0.0000E+00  0.0000E+00  0.0000E+00
    -61.746  0.0000E+00  0.0000E+00  0.0000E+00  0.0000E+00  0.0000E+00  0.0000E+00  0.0000E+00  0.0000E+00  0.0000E+00  0.0000E+00  0.0000E+00  0.0000E+00  0.0000E+00  0.0000E+00  0.0000E+00  0.0000E+00  0.0000E+00  0.0000E+00  0.0000E+00  0.0000E+00  0.0000E+00  0.0000E+00  0.0000E+00  0.0000E+00  0.0000E+00  0.0000E+00  0.0000E+00  0.0000E+00  0.0000E+00  0.0000E+00  0.0000E+00  0.0000E+00  0.0000E+00  0.0000E+00  0.0000E+00  0.0000E+00
    -61.494  0.0000E+00  0.0000E+00  0.0000E+00  0.0000E+00  0.0000E+00  0.0000E+00  0.0000E+00  0.0000E+00  0.0000E+00  0.0000E+00  0.0000E+00  0.0000E+00  0.0000E+00  0.0000E+00  0.0000E+00  0.0000E+00  0.0000E+00  0.0000E+00  0.0000E+00  0.0000E+00  0.0000E+00  0.0000E+00  0.0000E+00  0.0000E+00  0.0000E+00  0.0000E+00  0.0000E+00  0.0000E+00  0.0000E+00  0.0000E+00  0.0000E+00  0.0000E+00  0.0000E+00  0.0000E+00  0.0000E+00  0.0000E+00
    -61.243  0.0000E+00  0.0000E+00  0.0000E+00  0.0000E+00  0.0000E+00  0.0000E+00  0.0000E+00  0.0000E+00  0.0000E+00  0.0000E+00  0.0000E+00  0.0000E+00  0.0000E+00  0.0000E+00  0.0000E+00  0.0000E+00  0.0000E+00  0.0000E+00  0.0000E+00  0.0000E+00  0.0000E+00  0.0000E+00  0.0000E+00  0.0000E+00  0.0000E+00  0.0000E+00  0.0000E+00  0.0000E+00  0.0000E+00  0.0000E+00  0.0000E+00  0.0000E+00  0.0000E+00  0.0000E+00  0.0000E+00  0.0000E+00
    -60.991  0.0000E+00  0.0000E+00  0.0000E+00  0.0000E+00  0.0000E+00  0.0000E+00  0.0000E+00  0.0000E+00  0.0000E+00  0.0000E+00  0.0000E+00  0.0000E+00  0.0000E+00  0.0000E+00  0.0000E+00  0.0000E+00  0.0000E+00  0.0000E+00  0.0000E+00  0.0000E+00  0.0000E+00  0.0000E+00  0.0000E+00  0.0000E+00  0.0000E+00  0.0000E+00  0.0000E+00  0.0000E+00  0.0000E+00  0.0000E+00  0.0000E+00  0.0000E+00  0.0000E+00  0.0000E+00  0.0000E+00  0.0000E+00
    -60.740  0.0000E+00  0.0000E+00  0.0000E+00  0.0000E+00  0.0000E+00  0.0000E+00  0.0000E+00  0.0000E+00  0.0000E+00  0.0000E+00  0.0000E+00  0.0000E+00  0.0000E+00  0.0000E+00  0.0000E+00  0.0000E+00  0.0000E+00  0.0000E+00  0.0000E+00  0.0000E+00  0.0000E+00  0.0000E+00  0.0000E+00  0.0000E+00  0.0000E+00  0.0000E+00  0.0000E+00  0.0000E+00  0.0000E+00  0.0000E+00  0.0000E+00  0.0000E+00  0.0000E+00  0.0000E+00  0.0000E+00  0.0000E+00
    -60.488  0.0000E+00  0.0000E+00  0.0000E+00  0.0000E+00  0.0000E+00  0.0000E+00  0.0000E+00  0.0000E+00  0.0000E+00  0.0000E+00  0.0000E+00  0.0000E+00  0.0000E+00  0.0000E+00  0.0000E+00  0.0000E+00  0.0000E+00  0.0000E+00  0.0000E+00  0.0000E+00  0.0000E+00  0.0000E+00  0.0000E+00  0.0000E+00  0.0000E+00  0.0000E+00  0.0000E+00  0.0000E+00  0.0000E+00  0.0000E+00  0.0000E+00  0.0000E+00  0.0000E+00  0.0000E+00  0.0000E+00  0.0000E+00
    -60.237  0.0000E+00  0.0000E+00  0.0000E+00  0.0000E+00  0.0000E+00  0.0000E+00  0.0000E+00  0.0000E+00  0.0000E+00  0.0000E+00  0.0000E+00  0.0000E+00  0.0000E+00  0.0000E+00  0.0000E+00  0.0000E+00  0.0000E+00  0.0000E+00  0.0000E+00  0.0000E+00  0.0000E+00  0.0000E+00  0.0000E+00  0.0000E+00  0.0000E+00  0.0000E+00  0.0000E+00  0.0000E+00  0.0000E+00  0.0000E+00  0.0000E+00  0.0000E+00  0.0000E+00  0.0000E+00  0.0000E+00  0.0000E+00
    -59.985  0.0000E+00  0.0000E+00  0.0000E+00  0.0000E+00  0.0000E+00  0.0000E+00  0.0000E+00  0.0000E+00  0.0000E+00  0.0000E+00  0.0000E+00  0.0000E+00  0.0000E+00  0.0000E+00  0.0000E+00  0.0000E+00  0.0000E+00  0.0000E+00  0.0000E+00  0.0000E+00  0.0000E+00  0.0000E+00  0.0000E+00  0.0000E+00  0.0000E+00  0.0000E+00  0.0000E+00  0.0000E+00  0.0000E+00  0.0000E+00  0.0000E+00  0.0000E+00  0.0000E+00  0.0000E+00  0.0000E+00  0.0000E+00
    -59.734  0.0000E+00  0.0000E+00  0.0000E+00  0.0000E+00  0.0000E+00  0.0000E+00  0.0000E+00  0.0000E+00  0.0000E+00  0.0000E+00  0.0000E+00  0.0000E+00  0.0000E+00  0.0000E+00  0.0000E+00  0.0000E+00  0.0000E+00  0.0000E+00  0.0000E+00  0.0000E+00  0.0000E+00  0.0000E+00  0.0000E+00  0.0000E+00  0.0000E+00  0.0000E+00  0.0000E+00  0.0000E+00  0.0000E+00  0.0000E+00  0.0000E+00  0.0000E+00  0.0000E+00  0.0000E+00  0.0000E+00  0.0000E+00
    -59.482  0.0000E+00  0.0000E+00  0.0000E+00  0.0000E+00  0.0000E+00  0.0000E+00  0.0000E+00  0.0000E+00  0.0000E+00  0.0000E+00  0.0000E+00  0.0000E+00  0.0000E+00  0.0000E+00  0.0000E+00  0.0000E+00  0.0000E+00  0.0000E+00  0.0000E+00  0.0000E+00  0.0000E+00  0.0000E+00  0.0000E+00  0.0000E+00  0.0000E+00  0.0000E+00  0.0000E+00  0.0000E+00  0.0000E+00  0.0000E+00  0.0000E+00  0.0000E+00  0.0000E+00  0.0000E+00  0.0000E+00  0.0000E+00
    -59.231  0.0000E+00  0.0000E+00  0.0000E+00  0.0000E+00  0.0000E+00  0.0000E+00  0.0000E+00  0.0000E+00  0.0000E+00  0.0000E+00  0.0000E+00  0.0000E+00  0.0000E+00  0.0000E+00  0.0000E+00  0.0000E+00  0.0000E+00  0.0000E+00  0.0000E+00  0.0000E+00  0.0000E+00  0.0000E+00  0.0000E+00  0.0000E+00  0.0000E+00  0.0000E+00  0.0000E+00  0.0000E+00  0.0000E+00  0.0000E+00  0.0000E+00  0.0000E+00  0.0000E+00  0.0000E+00  0.0000E+00  0.0000E+00
    -58.979  0.0000E+00  0.0000E+00  0.0000E+00  0.0000E+00  0.0000E+00  0.0000E+00  0.0000E+00  0.0000E+00  0.0000E+00  0.0000E+00  0.0000E+00  0.0000E+00  0.0000E+00  0.0000E+00  0.0000E+00  0.0000E+00  0.0000E+00  0.0000E+00  0.0000E+00  0.0000E+00  0.0000E+00  0.0000E+00  0.0000E+00  0.0000E+00  0.0000E+00  0.0000E+00  0.0000E+00  0.0000E+00  0.0000E+00  0.0000E+00  0.0000E+00  0.0000E+00  0.0000E+00  0.0000E+00  0.0000E+00  0.0000E+00
    -58.727  0.0000E+00  0.0000E+00  0.0000E+00  0.0000E+00  0.0000E+00  0.0000E+00  0.0000E+00  0.0000E+00  0.0000E+00  0.0000E+00  0.0000E+00  0.0000E+00  0.0000E+00  0.0000E+00  0.0000E+00  0.0000E+00  0.0000E+00  0.0000E+00  0.0000E+00  0.0000E+00  0.0000E+00  0.0000E+00  0.0000E+00  0.0000E+00  0.0000E+00  0.0000E+00  0.0000E+00  0.0000E+00  0.0000E+00  0.0000E+00  0.0000E+00  0.0000E+00  0.0000E+00  0.0000E+00  0.0000E+00  0.0000E+00
    -58.476  0.0000E+00  0.0000E+00  0.0000E+00  0.0000E+00  0.0000E+00  0.0000E+00  0.0000E+00  0.0000E+00  0.0000E+00  0.0000E+00  0.0000E+00  0.0000E+00  0.0000E+00  0.0000E+00  0.0000E+00  0.0000E+00  0.0000E+00  0.0000E+00  0.0000E+00  0.0000E+00  0.0000E+00  0.0000E+00  0.0000E+00  0.0000E+00  0.0000E+00  0.0000E+00  0.0000E+00  0.0000E+00  0.0000E+00  0.0000E+00  0.0000E+00  0.0000E+00  0.0000E+00  0.0000E+00  0.0000E+00  0.0000E+00
    -58.224  0.0000E+00  0.0000E+00  0.0000E+00  0.0000E+00  0.0000E+00  0.0000E+00  0.0000E+00  0.0000E+00  0.0000E+00  0.0000E+00  0.0000E+00  0.0000E+00  0.0000E+00  0.0000E+00  0.0000E+00  0.0000E+00  0.0000E+00  0.0000E+00  0.0000E+00  0.0000E+00  0.0000E+00  0.0000E+00  0.0000E+00  0.0000E+00  0.0000E+00  0.0000E+00  0.0000E+00  0.0000E+00  0.0000E+00  0.0000E+00  0.0000E+00  0.0000E+00  0.0000E+00  0.0000E+00  0.0000E+00  0.0000E+00
    -57.973  0.0000E+00  0.0000E+00  0.0000E+00  0.0000E+00  0.0000E+00  0.0000E+00  0.0000E+00  0.0000E+00  0.0000E+00  0.0000E+00  0.0000E+00  0.0000E+00  0.0000E+00  0.0000E+00  0.0000E+00  0.0000E+00  0.0000E+00  0.0000E+00  0.0000E+00  0.0000E+00  0.0000E+00  0.0000E+00  0.0000E+00  0.0000E+00  0.0000E+00  0.0000E+00  0.0000E+00  0.0000E+00  0.0000E+00  0.0000E+00  0.0000E+00  0.0000E+00  0.0000E+00  0.0000E+00  0.0000E+00  0.0000E+00
    -57.721  0.0000E+00  0.0000E+00  0.0000E+00  0.0000E+00  0.0000E+00  0.0000E+00  0.0000E+00  0.0000E+00  0.0000E+00  0.0000E+00  0.0000E+00  0.0000E+00  0.0000E+00  0.0000E+00  0.0000E+00  0.0000E+00  0.0000E+00  0.0000E+00  0.0000E+00  0.0000E+00  0.0000E+00  0.0000E+00  0.0000E+00  0.0000E+00  0.0000E+00  0.0000E+00  0.0000E+00  0.0000E+00  0.0000E+00  0.0000E+00  0.0000E+00  0.0000E+00  0.0000E+00  0.0000E+00  0.0000E+00  0.0000E+00
    -57.470  0.0000E+00  0.0000E+00  0.0000E+00  0.0000E+00  0.0000E+00  0.0000E+00  0.0000E+00  0.0000E+00  0.0000E+00  0.0000E+00  0.0000E+00  0.0000E+00  0.0000E+00  0.0000E+00  0.0000E+00  0.0000E+00  0.0000E+00  0.0000E+00  0.0000E+00  0.0000E+00  0.0000E+00  0.0000E+00  0.0000E+00  0.0000E+00  0.0000E+00  0.0000E+00  0.0000E+00  0.0000E+00  0.0000E+00  0.0000E+00  0.0000E+00  0.0000E+00  0.0000E+00  0.0000E+00  0.0000E+00  0.0000E+00