   3   3   1   0
  0.9324195E+02  0.3184691E-09  0.3184691E-09  0.3184691E-08  0.5000000E-15
  1.000000000000000E-004
  CAR 
 Ultrathin TMD Valleytronics             
      9.66355813    -67.87756216  301     -3.38919712      1.00000000
    -67.878  0.0000E+00  0.0000E+00
    -67.619  0.0000E+00  0.0000E+00
    -67.361  0.0000E+00  0.0000E+00
    -67.102  0.0000E+00  0.0000E+00
    -66.844  0.0000E+00  0.0000E+00
    -66.585  0.0000E+00  0.0000E+00
    -66.327  0.0000E+00  0.0000E+00
    -66.068  0.0000E+00  0.0000E+00
    -65.810  0.0000E+00  0.0000E+00
    -65.551  0.0000E+00  0.0000E+00
    -65.293  0.0000E+00  0.0000E+00
    -65.034  0.0000E+00  0.0000E+00
    -64.776  0.0000E+00  0.0000E+00
    -64.517  0.0000E+00  0.0000E+00
    -64.259  0.0000E+00  0.2000E+01
    -64.001  0.0000E+00  0.2000E+01
    -63.742  0.0000E+00  0.2000E+01
    -63.484  0.0000E+00  0.2000E+01
    -63.225  0.0000E+00  0.2000E+01
    -62.967  0.0000E+00  0.2000E+01
    -62.708  0.0000E+00  0.2000E+01
    -62.450  0.0000E+00  0.2000E+01
    -62.191  0.0000E+00  0.2000E+01
    -61.933  0.0000E+00  0.2000E+01
    -61.674  0.0000E+00  0.2000E+01
    -61.416  0.0000E+00  0.2000E+01
    -61.157  0.0000E+00  0.2000E+01
    -60.899  0.0000E+00  0.2000E+01
    -60.640  0.0000E+00  0.2000E+01
    -60.382  0.0000E+00  0.2000E+01
    -60.123  0.0000E+00  0.2000E+01
    -59.865  0.0000E+00  0.2000E+01
    -59.607  0.0000E+00  0.2000E+01
    -59.348  0.0000E+00  0.2000E+01
    -59.090  0.0000E+00  0.2000E+01
    -58.831  0.0000E+00  0.2000E+01
    -58.573  0.0000E+00  0.2000E+01
    -58.314  0.0000E+00  0.2000E+01
    -58.056  0.0000E+00  0.2000E+01
    -57.797  0.0000E+00  0.2000E+01
    -57.539  0.0000E+00  0.2000E+01
    -57.280  0.0000E+00  0.2000E+01
    -57.022  0.0000E+00  0.2000E+01
    -56.763  0.0000E+00  0.2000E+01
    -56.505  0.0000E+00  0.2000E+01
    -56.246  0.0000E+00  0.2000E+01
    -55.988  0.0000E+00  0.2000E+01
    -55.729  0.0000E+00  0.2000E+01
    -55.471  0.0000E+00  0.2000E+01
    -55.213  0.0000E+00  0.2000E+01
    -54.954  0.0000E+00  0.2000E+01
    -54.696  0.0000E+00  0.2000E+01
    -54.437  0.0000E+00  0.2000E+01
    -54.179  0.0000E+00  0.2000E+01
    -53.920  0.0000E+00  0.2000E+01
    -53.662  0.0000E+00  0.2000E+01
    -53.403  0.0000E+00  0.2000E+01
    -53.145  0.0000E+00  0.2000E+01
    -52.886  0.0000E+00  0.2000E+01
    -52.628  0.0000E+00  0.2000E+01
    -52.369  0.0000E+00  0.2000E+01
    -52.111  0.0000E+00  0.2000E+01
    -51.852  0.0000E+00  0.2000E+01
    -51.594  0.0000E+00  0.2000E+01
    -51.335  0.0000E+00  0.2000E+01
    -51.077  0.0000E+00  0.2000E+01
    -50.819  0.0000E+00  0.2000E+01
    -50.560  0.0000E+00  0.2000E+01
    -50.302  0.0000E+00  0.2000E+01
    -50.043  0.0000E+00  0.2000E+01
    -49.785  0.0000E+00  0.2000E+01
    -49.526  0.0000E+00  0.2000E+01
    -49.268  0.0000E+00  0.2000E+01
    -49.009  0.0000E+00  0.2000E+01
    -48.751  0.0000E+00  0.2000E+01
    -48.492  0.0000E+00  0.2000E+01
    -48.234  0.0000E+00  0.2000E+01
    -47.975  0.0000E+00  0.2000E+01
    -47.717  0.0000E+00  0.2000E+01
    -47.458  0.0000E+00  0.2000E+01
    -47.200  0.0000E+00  0.2000E+01
    -46.941  0.0000E+00  0.2000E+01
    -46.683  0.0000E+00  0.2000E+01
    -46.425  0.0000E+00  0.2000E+01
    -46.166  0.0000E+00  0.2000E+01
    -45.908  0.0000E+00  0.2000E+01
    -45.649  0.0000E+00  0.2000E+01
    -45.391  0.0000E+00  0.2000E+01
    -45.132  0.0000E+00  0.2000E+01
    -44.874  0.0000E+00  0.2000E+01
    -44.615  0.0000E+00  0.2000E+01
    -44.357  0.0000E+00  0.2000E+01
    -44.098  0.0000E+00  0.2000E+01
    -43.840  0.0000E+00  0.2000E+01
    -43.581  0.0000E+00  0.2000E+01
    -43.323  0.0000E+00  0.2000E+01
    -43.064  0.0000E+00  0.2000E+01
    -42.806  0.0000E+00  0.2000E+01
    -42.547  0.0000E+00  0.2000E+01
    -42.289  0.0000E+00  0.2000E+01
    -42.031  0.0000E+00  0.2000E+01
    -41.772  0.0000E+00  0.2000E+01
    -41.514  0.0000E+00  0.2000E+01
    -41.255  0.0000E+00  0.2000E+01
    -40.997  0.0000E+00  0.2000E+01
    -40.738  0.0000E+00  0.2000E+01
    -40.480  0.0000E+00  0.2000E+01
    -40.221  0.0000E+00  0.2000E+01
    -39.963  0.0000E+00  0.2000E+01
    -39.704  0.0000E+00  0.2000E+01
    -39.446  0.0000E+00  0.2000E+01
    -39.187  0.0000E+00  0.2000E+01
    -38.929  0.0000E+00  0.2000E+01
    -38.670  0.0000E+00  0.2000E+01
    -38.412  0.6807E+02  0.5954E+01
    -38.153  0.0000E+00  0.8000E+01
    -37.895  0.0000E+00  0.8000E+01
    -37.637  0.0000E+00  0.8000E+01
    -37.378  0.0000E+00  0.8000E+01
    -37.120  0.0000E+00  0.8000E+01
    -36.861  0.0000E+00  0.8000E+01
    -36.603  0.0000E+00  0.8000E+01
    -36.344  0.0000E+00  0.8000E+01
    -36.086  0.0000E+00  0.8000E+01
    -35.827  0.0000E+00  0.8000E+01
    -35.569  0.0000E+00  0.8000E+01
    -35.310  0.0000E+00  0.8000E+01
    -35.052  0.0000E+00  0.8000E+01
    -34.793  0.0000E+00  0.8000E+01
    -34.535  0.0000E+00  0.8000E+01
    -34.276  0.0000E+00  0.8000E+01
    -34.018  0.0000E+00  0.8000E+01
    -33.759  0.0000E+00  0.8000E+01
    -33.501  0.0000E+00  0.8000E+01
    -33.243  0.0000E+00  0.8000E+01
    -32.984  0.0000E+00  0.8000E+01
    -32.726  0.0000E+00  0.8000E+01
    -32.467  0.0000E+00  0.8000E+01
    -32.209  0.0000E+00  0.8000E+01
    -31.950  0.0000E+00  0.8000E+01
    -31.692  0.0000E+00  0.8000E+01
    -31.433  0.0000E+00  0.8000E+01
    -31.175  0.0000E+00  0.8000E+01
    -30.916  0.0000E+00  0.8000E+01
    -30.658  0.0000E+00  0.8000E+01
    -30.399  0.0000E+00  0.8000E+01
    -30.141  0.0000E+00  0.8000E+01
    -29.882  0.0000E+00  0.8000E+01
    -29.624  0.0000E+00  0.8000E+01
    -29.365  0.0000E+00  0.8000E+01
    -29.107  0.0000E+00  0.8000E+01
    -28.849  0.0000E+00  0.8000E+01
    -28.590  0.0000E+00  0.8000E+01
    -28.332  0.0000E+00  0.8000E+01
    -28.073  0.0000E+00  0.8000E+01
    -27.815  0.0000E+00  0.8000E+01
    -27.556  0.0000E+00  0.8000E+01
    -27.298  0.0000E+00  0.8000E+01
    -27.039  0.0000E+00  0.8000E+01
    -26.781  0.0000E+00  0.8000E+01
    -26.522  0.0000E+00  0.8000E+01
    -26.264  0.0000E+00  0.8000E+01
    -26.005  0.0000E+00  0.8000E+01
    -25.747  0.0000E+00  0.8000E+01
    -25.488  0.0000E+00  0.8000E+01
    -25.230  0.0000E+00  0.8000E+01
    -24.971  0.0000E+00  0.8000E+01
    -24.713  0.0000E+00  0.8000E+01
    -24.455  0.0000E+00  0.8000E+01
    -24.196  0.0000E+00  0.8000E+01
    -23.938  0.0000E+00  0.8000E+01
    -23.679  0.0000E+00  0.8000E+01
    -23.421  0.0000E+00  0.8000E+01
    -23.162  0.0000E+00  0.8000E+01
    -22.904  0.0000E+00  0.8000E+01
    -22.645  0.0000E+00  0.8000E+01
    -22.387  0.0000E+00  0.8000E+01
    -22.128  0.0000E+00  0.8000E+01
    -21.870  0.0000E+00  0.8000E+01
    -21.611  0.0000E+00  0.8000E+01
    -21.353  0.0000E+00  0.8000E+01
    -21.094  0.0000E+00  0.8000E+01
    -20.836  0.0000E+00  0.8000E+01
    -20.577  0.0000E+00  0.8000E+01
    -20.319  0.0000E+00  0.8000E+01
    -20.061  0.0000E+00  0.8000E+01
    -19.802  0.0000E+00  0.8000E+01
    -19.544  0.0000E+00  0.8000E+01
    -19.285  0.0000E+00  0.8000E+01
    -19.027  0.0000E+00  0.8000E+01
    -18.768  0.0000E+00  0.8000E+01
    -18.510  0.0000E+00  0.8000E+01
    -18.251  0.0000E+00  0.8000E+01
    -17.993  0.0000E+00  0.8000E+01
    -17.734  0.0000E+00  0.8000E+01
    -17.476  0.3439E+00  0.8013E+01
    -17.217  0.5189E+00  0.8148E+01
    -16.959  0.6004E+00  0.8297E+01
    -16.700  0.6531E+00  0.8456E+01
    -16.442  0.7670E+00  0.8636E+01
    -16.183  0.2737E+01  0.8916E+01
    -15.925  0.2784E+01  0.9542E+01
    -15.667  0.4342E+01  0.1057E+02
    -15.408  0.3566E+01  0.1190E+02
    -15.150  0.0000E+00  0.1200E+02
    -14.891  0.0000E+00  0.1200E+02
    -14.633  0.0000E+00  0.1200E+02
    -14.374  0.0000E+00  0.1200E+02
    -14.116  0.0000E+00  0.1200E+02
    -13.857  0.0000E+00  0.1200E+02
    -13.599  0.0000E+00  0.1200E+02
    -13.340  0.0000E+00  0.1200E+02
    -13.082  0.0000E+00  0.1200E+02
    -12.823  0.0000E+00  0.1200E+02
    -12.565  0.0000E+00  0.1200E+02
    -12.306  0.0000E+00  0.1200E+02
    -12.048  0.0000E+00  0.1200E+02
    -11.789  0.0000E+00  0.1200E+02
    -11.531  0.0000E+00  0.1200E+02
    -11.273  0.0000E+00  0.1200E+02
    -11.014  0.0000E+00  0.1200E+02
    -10.756  0.0000E+00  0.1200E+02
    -10.497  0.0000E+00  0.1200E+02
    -10.239  0.0000E+00  0.1200E+02
     -9.980  0.0000E+00  0.1200E+02
     -9.722  0.0000E+00  0.1200E+02
     -9.463  0.0000E+00  0.1200E+02
     -9.205  0.0000E+00  0.1200E+02
     -8.946  0.1813E+01  0.1230E+02
     -8.688  0.3909E+01  0.1297E+02
     -8.429  0.1361E+01  0.1423E+02
     -8.171  0.1721E+01  0.1468E+02
     -7.912  0.8665E+00  0.1498E+02
     -7.654  0.6989E+00  0.1518E+02
     -7.395  0.4967E+01  0.1576E+02
     -7.137  0.2022E+01  0.1709E+02
     -6.879  0.1108E+01  0.1740E+02
     -6.620  0.1250E+02  0.1829E+02
     -6.362  0.3121E+01  0.1933E+02
     -6.103  0.1386E+01  0.1976E+02
     -5.845  0.1731E+01  0.2035E+02
     -5.586  0.1258E+01  0.2058E+02
     -5.328  0.2399E+02  0.2152E+02
     -5.069  0.1535E+01  0.2258E+02
     -4.811  0.2464E+01  0.2306E+02
     -4.552  0.2899E+01  0.2380E+02
     -4.294  0.2275E+01  0.2417E+02
     -4.035  0.2706E+01  0.2510E+02
     -3.777  0.1550E+01  0.2569E+02
     -3.518  0.5912E+00  0.2599E+02
     -3.260  0.0000E+00  0.2600E+02
     -3.001  0.0000E+00  0.2600E+02
     -2.743  0.0000E+00  0.2600E+02
     -2.485  0.0000E+00  0.2600E+02
     -2.226  0.0000E+00  0.2600E+02
     -1.968  0.0000E+00  0.2600E+02
     -1.709  0.2401E+00  0.2601E+02
     -1.451  0.4446E+01  0.2624E+02
     -1.192  0.6487E+00  0.2778E+02
     -0.934  0.5098E+01  0.2883E+02
     -0.675  0.3056E+01  0.3000E+02
     -0.417  0.2434E+01  0.3069E+02
     -0.158  0.2422E+01  0.3147E+02
      0.100  0.1625E+01  0.3198E+02
      0.359  0.7188E+00  0.3244E+02
      0.617  0.1280E+01  0.3266E+02
      0.876  0.1684E+01  0.3347E+02
      1.134  0.1435E+01  0.3385E+02
      1.393  0.0000E+00  0.3400E+02
      1.651  0.0000E+00  0.3400E+02
      1.909  0.0000E+00  0.3400E+02
      2.168  0.5724E+00  0.3405E+02
      2.426  0.7005E+00  0.3424E+02
      2.685  0.1311E+01  0.3449E+02
      2.943  0.1590E+01  0.3489E+02
      3.202  0.1952E+01  0.3535E+02
      3.460  0.2229E+01  0.3589E+02
      3.719  0.2759E+01  0.3678E+02
      3.977  0.1491E+01  0.3723E+02
      4.236  0.1447E+01  0.3759E+02
      4.494  0.2380E+01  0.3808E+02
      4.753  0.2404E+01  0.3874E+02
      5.011  0.2126E+01  0.3932E+02
      5.270  0.5459E+00  0.3965E+02
      5.528  0.5905E+00  0.3979E+02
      5.787  0.3994E+00  0.3993E+02
      6.045  0.1065E+00  0.3999E+02
      6.303  0.0000E+00  0.4000E+02
      6.562  0.0000E+00  0.4000E+02
      6.820  0.0000E+00  0.4000E+02
      7.079  0.0000E+00  0.4000E+02
      7.337  0.0000E+00  0.4000E+02
      7.596  0.0000E+00  0.4000E+02
      7.854  0.0000E+00  0.4000E+02
      8.113  0.0000E+00  0.4000E+02
      8.371  0.0000E+00  0.4000E+02
      8.630  0.0000E+00  0.4000E+02
      8.888  0.0000E+00  0.4000E+02
      9.147  0.0000E+00  0.4000E+02
      9.405  0.0000E+00  0.4000E+02
      9.664  0.0000E+00  0.4000E+02
      9.66355813    -67.87756216  301     -3.38919712      1.00000000
    -67.878  0.0000E+00  0.0000E+00  0.0000E+00  0.0000E+00  0.0000E+00  0.0000E+00  0.0000E+00  0.0000E+00  0.0000E+00
    -67.619  0.0000E+00  0.0000E+00  0.0000E+00  0.0000E+00  0.0000E+00  0.0000E+00  0.0000E+00  0.0000E+00  0.0000E+00
    -67.361  0.0000E+00  0.0000E+00  0.0000E+00  0.0000E+00  0.0000E+00  0.0000E+00  0.0000E+00  0.0000E+00  0.0000E+00
    -67.102  0.0000E+00  0.0000E+00  0.0000E+00  0.0000E+00  0.0000E+00  0.0000E+00  0.0000E+00  0.0000E+00  0.0000E+00
    -66.844  0.0000E+00  0.0000E+00  0.0000E+00  0.0000E+00  0.0000E+00  0.0000E+00  0.0000E+00  0.0000E+00  0.0000E+00
    -66.585  0.0000E+00  0.0000E+00  0.0000E+00  0.0000E+00  0.0000E+00  0.0000E+00  0.0000E+00  0.0000E+00  0.0000E+00
    -66.327  0.0000E+00  0.0000E+00  0.0000E+00  0.0000E+00  0.0000E+00  0.0000E+00  0.0000E+00  0.0000E+00  0.0000E+00
    -66.068  0.0000E+00  0.0000E+00  0.0000E+00  0.0000E+00  0.0000E+00  0.0000E+00  0.0000E+00  0.0000E+00  0.0000E+00
    -65.810  0.0000E+00  0.0000E+00  0.0000E+00  0.0000E+00  0.0000E+00  0.0000E+00  0.0000E+00  0.0000E+00  0.0000E+00
    -65.551  0.0000E+00  0.0000E+00  0.0000E+00  0.0000E+00  0.0000E+00  0.0000E+00  0.0000E+00  0.0000E+00  0.0000E+00
    -65.293  0.0000E+00  0.0000E+00  0.0000E+00  0.0000E+00  0.0000E+00  0.0000E+00  0.0000E+00  0.0000E+00  0.0000E+00
    -65.034  0.0000E+00  0.0000E+00  0.0000E+00  0.0000E+00  0.0000E+00  0.0000E+00  0.0000E+00  0.0000E+00  0.0000E+00
    -64.776  0.0000E+00  0.0000E+00  0.0000E+00  0.0000E+00  0.0000E+00  0.0000E+00  0.0000E+00  0.0000E+00  0.0000E+00
    -64.517  0.0000E+00  0.0000E+00  0.0000E+00  0.0000E+00  0.0000E+00  0.0000E+00  0.0000E+00  0.0000E+00  0.0000E+00
    -64.259  0.0000E+00  0.0000E+00  0.0000E+00  0.0000E+00  0.0000E+00  0.0000E+00  0.0000E+00  0.0000E+00  0.0000E+00
    -64.001  0.0000E+00  0.0000E+00  0.0000E+00  0.0000E+00  0.0000E+00  0.0000E+00  0.0000E+00  0.0000E+00  0.0000E+00
    -63.742  0.0000E+00  0.0000E+00  0.0000E+00  0.0000E+00  0.0000E+00  0.0000E+00  0.0000E+00  0.0000E+00  0.0000E+00
    -63.484  0.0000E+00  0.0000E+00  0.0000E+00  0.0000E+00  0.0000E+00  0.0000E+00  0.0000E+00  0.0000E+00  0.0000E+00
    -63.225  0.0000E+00  0.0000E+00  0.0000E+00  0.0000E+00  0.0000E+00  0.0000E+00  0.0000E+00  0.0000E+00  0.0000E+00
    -62.967  0.0000E+00  0.0000E+00  0.0000E+00  0.0000E+00  0.0000E+00  0.0000E+00  0.0000E+00  0.0000E+00  0.0000E+00
    -62.708  0.0000E+00  0.0000E+00  0.0000E+00  0.0000E+00  0.0000E+00  0.0000E+00  0.0000E+00  0.0000E+00  0.0000E+00
    -62.450  0.0000E+00  0.0000E+00  0.0000E+00  0.0000E+00  0.0000E+00  0.0000E+00  0.0000E+00  0.0000E+00  0.0000E+00
    -62.191  0.0000E+00  0.0000E+00  0.0000E+00  0.0000E+00  0.0000E+00  0.0000E+00  0.0000E+00  0.0000E+00  0.0000E+00
    -61.933  0.0000E+00  0.0000E+00  0.0000E+00  0.0000E+00  0.0000E+00  0.0000E+00  0.0000E+00  0.0000E+00  0.0000E+00
    -61.674  0.0000E+00  0.0000E+00  0.0000E+00  0.0000E+00  0.0000E+00  0.0000E+00  0.0000E+00  0.0000E+00  0.0000E+00
    -61.416  0.0000E+00  0.0000E+00  0.0000E+00  0.0000E+00  0.0000E+00  0.0000E+00  0.0000E+00  0.0000E+00  0.0000E+00
    -61.157  0.0000E+00  0.0000E+00  0.0000E+00  0.0000E+00  0.0000E+00  0.0000E+00  0.0000E+00  0.0000E+00  0.0000E+00
    -60.899  0.0000E+00  0.0000E+00  0.0000E+00  0.0000E+00  0.0000E+00  0.0000E+00  0.0000E+00  0.0000E+00  0.0000E+00
    -60.640  0.0000E+00  0.0000E+00  0.0000E+00  0.0000E+00  0.0000E+00  0.0000E+00  0.0000E+00  0.0000E+00  0.0000E+00
    -60.382  0.0000E+00  0.0000E+00  0.0000E+00  0.0000E+00  0.0000E+00  0.0000E+00  0.0000E+00  0.0000E+00  0.0000E+00
    -60.123  0.0000E+00  0.0000E+00  0.0000E+00  0.0000E+00  0.0000E+00  0.0000E+00  0.0000E+00  0.0000E+00  0.0000E+00
    -59.865  0.0000E+00  0.0000E+00  0.0000E+00  0.0000E+00  0.0000E+00  0.0000E+00  0.0000E+00  0.0000E+00  0.0000E+00
    -59.607  0.0000E+00  0.0000E+00  0.0000E+00  0.0000E+00  0.0000E+00  0.0000E+00  0.0000E+00  0.0000E+00  0.0000E+00
    -59.348  0.0000E+00  0.0000E+00  0.0000E+00  0.0000E+00  0.0000E+00  0.0000E+00  0.0000E+00  0.0000E+00  0.0000E+00
    -59.090  0.0000E+00  0.0000E+00  0.0000E+00  0.0000E+00  0.0000E+00  0.0000E+00  0.0000E+00  0.0000E+00  0.0000E+00
    -58.831  0.0000E+00  0.0000E+00  0.0000E+00  0.0000E+00  0.0000E+00  0.0000E+00  0.0000E+00  0.0000E+00  0.0000E+00
    -58.573  0.0000E+00  0.0000E+00  0.0000E+00  0.0000E+00  0.0000E+00  0.0000E+00  0.0000E+00  0.0000E+00  0.0000E+00
    -58.314  0.0000E+00  0.0000E+00  0.0000E+00  0.0000E+00  0.0000E+00  0.0000E+00  0.0000E+00  0.0000E+00  0.0000E+00
    -58.056  0.0000E+00  0.0000E+00  0.0000E+00  0.0000E+00  0.0000E+00  0.0000E+00  0.0000E+00  0.0000E+00  0.0000E+00
    -57.797  0.0000E+00  0.0000E+00  0.0000E+00  0.0000E+00  0.0000E+00  0.0000E+00  0.0000E+00  0.0000E+00  0.0000E+00
    -57.539  0.0000E+00  0.0000E+00  0.0000E+00  0.0000E+00  0.0000E+00  0.0000E+00  0.0000E+00  0.0000E+00  0.0000E+00
    -57.280  0.0000E+00  0.0000E+00  0.0000E+00  0.0000E+00  0.0000E+00  0.0000E+00  0.0000E+00  0.0000E+00  0.0000E+00
    -57.022  0.0000E+00  0.0000E+00  0.0000E+00  0.0000E+00  0.0000E+00  0.0000E+00  0.0000E+00  0.0000E+00  0.0000E+00
    -56.763  0.0000E+00  0.0000E+00  0.0000E+00  0.0000E+00  0.0000E+00  0.0000E+00  0.0000E+00  0.0000E+00  0.0000E+00
    -56.505  0.0000E+00  0.0000E+00  0.0000E+00  0.0000E+00  0.0000E+00  0.0000E+00  0.0000E+00  0.0000E+00  0.0000E+00
    -56.246  0.0000E+00  0.0000E+00  0.0000E+00  0.0000E+00  0.0000E+00  0.0000E+00  0.0000E+00  0.0000E+00  0.0000E+00
    -55.988  0.0000E+00  0.0000E+00  0.0000E+00  0.0000E+00  0.0000E+00  0.0000E+00  0.0000E+00  0.0000E+00  0.0000E+00
    -55.729  0.0000E+00  0.0000E+00  0.0000E+00  0.0000E+00  0.0000E+00  0.0000E+00  0.0000E+00  0.0000E+00  0.0000E+00
    -55.471  0.0000E+00  0.0000E+00  0.0000E+00  0.0000E+00  0.0000E+00  0.0000E+00  0.0000E+00  0.0000E+00  0.0000E+00
    -55.213  0.0000E+00  0.0000E+00  0.0000E+00  0.0000E+00  0.0000E+00  0.0000E+00  0.0000E+00  0.0000E+00  0.0000E+00
    -54.954  0.0000E+00  0.0000E+00  0.0000E+00  0.0000E+00  0.0000E+00  0.0000E+00  0.0000E+00  0.0000E+00  0.0000E+00
    -54.696  0.0000E+00  0.0000E+00  0.0000E+00  0.0000E+00  0.0000E+00  0.0000E+00  0.0000E+00  0.0000E+00  0.0000E+00
    -54.437  0.0000E+00  0.0000E+00  0.0000E+00  0.0000E+00  0.0000E+00  0.0000E+00  0.0000E+00  0.0000E+00  0.0000E+00
    -54.179  0.0000E+00  0.0000E+00  0.0000E+00  0.0000E+00  0.0000E+00  0.0000E+00  0.0000E+00  0.0000E+00  0.0000E+00
    -53.920  0.0000E+00  0.0000E+00  0.0000E+00  0.0000E+00  0.0000E+00  0.0000E+00  0.0000E+00  0.0000E+00  0.0000E+00
    -53.662  0.0000E+00  0.0000E+00  0.0000E+00  0.0000E+00  0.0000E+00  0.0000E+00  0.0000E+00  0.0000E+00  0.0000E+00
    -53.403  0.0000E+00  0.0000E+00  0.0000E+00  0.0000E+00  0.0000E+00  0.0000E+00  0.0000E+00  0.0000E+00  0.0000E+00
    -53.145  0.0000E+00  0.0000E+00  0.0000E+00  0.0000E+00  0.0000E+00  0.0000E+00  0.0000E+00  0.0000E+00  0.0000E+00
    -52.886  0.0000E+00  0.0000E+00  0.0000E+00  0.0000E+00  0.0000E+00  0.0000E+00  0.0000E+00  0.0000E+00  0.0000E+00
    -52.628  0.0000E+00  0.0000E+00  0.0000E+00  0.0000E+00  0.0000E+00  0.0000E+00  0.0000E+00  0.0000E+00  0.0000E+00
    -52.369  0.0000E+00  0.0000E+00  0.0000E+00  0.0000E+00  0.0000E+00  0.0000E+00  0.0000E+00  0.0000E+00  0.0000E+00
    -52.111  0.0000E+00  0.0000E+00  0.0000E+00  0.0000E+00  0.0000E+00  0.0000E+00  0.0000E+00  0.0000E+00  0.0000E+00
    -51.852  0.0000E+00  0.0000E+00  0.0000E+00  0.0000E+00  0.0000E+00  0.0000E+00  0.0000E+00  0.0000E+00  0.0000E+00
    -51.594  0.0000E+00  0.0000E+00  0.0000E+00  0.0000E+00  0.0000E+00  0.0000E+00  0.0000E+00  0.0000E+00  0.0000E+00
    -51.335  0.0000E+00  0.0000E+00  0.0000E+00  0.0000E+00  0.0000E+00  0.0000E+00  0.0000E+00  0.0000E+00  0.0000E+00
    -51.077  0.0000E+00  0.0000E+00  0.0000E+00  0.0000E+00  0.0000E+00  0.0000E+00  0.0000E+00  0.0000E+00  0.0000E+00
    -50.819  0.0000E+00  0.0000E+00  0.0000E+00  0.0000E+00  0.0000E+00  0.0000E+00  0.0000E+00  0.0000E+00  0.0000E+00
    -50.560  0.0000E+00  0.0000E+00  0.0000E+00  0.0000E+00  0.0000E+00  0.0000E+00  0.0000E+00  0.0000E+00  0.0000E+00
    -50.302  0.0000E+00  0.0000E+00  0.0000E+00  0.0000E+00  0.0000E+00  0.0000E+00  0.0000E+00  0.0000E+00  0.0000E+00
    -50.043  0.0000E+00  0.0000E+00  0.0000E+00  0.0000E+00  0.0000E+00  0.0000E+00  0.0000E+00  0.0000E+00  0.0000E+00
    -49.785  0.0000E+00  0.0000E+00  0.0000E+00  0.0000E+00  0.0000E+00  0.0000E+00  0.0000E+00  0.0000E+00  0.0000E+00
    -49.526  0.0000E+00  0.0000E+00  0.0000E+00  0.0000E+00  0.0000E+00  0.0000E+00  0.0000E+00  0.0000E+00  0.0000E+00
    -49.268  0.0000E+00  0.0000E+00  0.0000E+00  0.0000E+00  0.0000E+00  0.0000E+00  0.0000E+00  0.0000E+00  0.0000E+00
    -49.009  0.0000E+00  0.0000E+00  0.0000E+00  0.0000E+00  0.0000E+00  0.0000E+00  0.0000E+00  0.0000E+00  0.0000E+00
    -48.751  0.0000E+00  0.0000E+00  0.0000E+00  0.0000E+00  0.0000E+00  0.0000E+00  0.0000E+00  0.0000E+00  0.0000E+00
    -48.492  0.0000E+00  0.0000E+00  0.0000E+00  0.0000E+00  0.0000E+00  0.0000E+00  0.0000E+00  0.0000E+00  0.0000E+00
    -48.234  0.0000E+00  0.0000E+00  0.0000E+00  0.0000E+00  0.0000E+00  0.0000E+00  0.0000E+00  0.0000E+00  0.0000E+00
    -47.975  0.0000E+00  0.0000E+00  0.0000E+00  0.0000E+00  0.0000E+00  0.0000E+00  0.0000E+00  0.0000E+00  0.0000E+00
    -47.717  0.0000E+00  0.0000E+00  0.0000E+00  0.0000E+00  0.0000E+00  0.0000E+00  0.0000E+00  0.0000E+00  0.0000E+00
    -47.458  0.0000E+00  0.0000E+00  0.0000E+00  0.0000E+00  0.0000E+00  0.0000E+00  0.0000E+00  0.0000E+00  0.0000E+00
    -47.200  0.0000E+00  0.0000E+00  0.0000E+00  0.0000E+00  0.0000E+00  0.0000E+00  0.0000E+00  0.0000E+00  0.0000E+00
    -46.941  0.0000E+00  0.0000E+00  0.0000E+00  0.0000E+00  0.0000E+00  0.0000E+00  0.0000E+00  0.0000E+00  0.0000E+00
    -46.683  0.0000E+00  0.0000E+00  0.0000E+00  0.0000E+00  0.0000E+00  0.0000E+00  0.0000E+00  0.0000E+00  0.0000E+00
    -46.425  0.0000E+00  0.0000E+00  0.0000E+00  0.0000E+00  0.0000E+00  0.0000E+00  0.0000E+00  0.0000E+00  0.0000E+00
    -46.166  0.0000E+00  0.0000E+00  0.0000E+00  0.0000E+00  0.0000E+00  0.0000E+00  0.0000E+00  0.0000E+00  0.0000E+00
    -45.908  0.0000E+00  0.0000E+00  0.0000E+00  0.0000E+00  0.0000E+00  0.0000E+00  0.0000E+00  0.0000E+00  0.0000E+00
    -45.649  0.0000E+00  0.0000E+00  0.0000E+00  0.0000E+00  0.0000E+00  0.0000E+00  0.0000E+00  0.0000E+00  0.0000E+00
    -45.391  0.0000E+00  0.0000E+00  0.0000E+00  0.0000E+00  0.0000E+00  0.0000E+00  0.0000E+00  0.0000E+00  0.0000E+00
    -45.132  0.0000E+00  0.0000E+00  0.0000E+00  0.0000E+00  0.0000E+00  0.0000E+00  0.0000E+00  0.0000E+00  0.0000E+00
    -44.874  0.0000E+00  0.0000E+00  0.0000E+00  0.0000E+00  0.0000E+00  0.0000E+00  0.0000E+00  0.0000E+00  0.0000E+00
    -44.615  0.0000E+00  0.0000E+00  0.0000E+00  0.0000E+00  0.0000E+00  0.0000E+00  0.0000E+00  0.0000E+00  0.0000E+00
    -44.357  0.0000E+00  0.0000E+00  0.0000E+00  0.0000E+00  0.0000E+00  0.0000E+00  0.0000E+00  0.0000E+00  0.0000E+00
    -44.098  0.0000E+00  0.0000E+00  0.0000E+00  0.0000E+00  0.0000E+00  0.0000E+00  0.0000E+00  0.0000E+00  0.0000E+00
    -43.840  0.0000E+00  0.0000E+00  0.0000E+00  0.0000E+00  0.0000E+00  0.0000E+00  0.0000E+00  0.0000E+00  0.0000E+00
    -43.581  0.0000E+00  0.0000E+00  0.0000E+00  0.0000E+00  0.0000E+00  0.0000E+00  0.0000E+00  0.0000E+00  0.0000E+00
    -43.323  0.0000E+00  0.0000E+00  0.0000E+00  0.0000E+00  0.0000E+00  0.0000E+00  0.0000E+00  0.0000E+00  0.0000E+00
    -43.064  0.0000E+00  0.0000E+00  0.0000E+00  0.0000E+00  0.0000E+00  0.0000E+00  0.0000E+00  0.0000E+00  0.0000E+00
    -42.806  0.0000E+00  0.0000E+00  0.0000E+00  0.0000E+00  0.0000E+00  0.0000E+00  0.0000E+00  0.0000E+00  0.0000E+00
    -42.547  0.0000E+00  0.0000E+00  0.0000E+00  0.0000E+00  0.0000E+00  0.0000E+00  0.0000E+00  0.0000E+00  0.0000E+00
    -42.289  0.0000E+00  0.0000E+00  0.0000E+00  0.0000E+00  0.0000E+00  0.0000E+00  0.0000E+00  0.0000E+00  0.0000E+00
    -42.031  0.0000E+00  0.0000E+00  0.0000E+00  0.0000E+00  0.0000E+00  0.0000E+00  0.0000E+00  0.0000E+00  0.0000E+00
    -41.772  0.0000E+00  0.0000E+00  0.0000E+00  0.0000E+00  0.0000E+00  0.0000E+00  0.0000E+00  0.0000E+00  0.0000E+00
    -41.514  0.0000E+00  0.0000E+00  0.0000E+00  0.0000E+00  0.0000E+00  0.0000E+00  0.0000E+00  0.0000E+00  0.0000E+00
    -41.255  0.0000E+00  0.0000E+00  0.0000E+00  0.0000E+00  0.0000E+00  0.0000E+00  0.0000E+00  0.0000E+00  0.0000E+00
    -40.997  0.0000E+00  0.0000E+00  0.0000E+00  0.0000E+00  0.0000E+00  0.0000E+00  0.0000E+00  0.0000E+00  0.0000E+00
    -40.738  0.0000E+00  0.0000E+00  0.0000E+00  0.0000E+00  0.0000E+00  0.0000E+00  0.0000E+00  0.0000E+00  0.0000E+00
    -40.480  0.0000E+00  0.0000E+00  0.0000E+00  0.0000E+00  0.0000E+00  0.0000E+00  0.0000E+00  0.0000E+00  0.0000E+00
    -40.221  0.0000E+00  0.0000E+00  0.0000E+00  0.0000E+00  0.0000E+00  0.0000E+00  0.0000E+00  0.0000E+00  0.0000E+00
    -39.963  0.0000E+00  0.0000E+00  0.0000E+00  0.0000E+00  0.0000E+00  0.0000E+00  0.0000E+00  0.0000E+00  0.0000E+00
    -39.704  0.0000E+00  0.0000E+00  0.0000E+00  0.0000E+00  0.0000E+00  0.0000E+00  0.0000E+00  0.0000E+00  0.0000E+00
    -39.446  0.0000E+00  0.0000E+00  0.0000E+00  0.0000E+00  0.0000E+00  0.0000E+00  0.0000E+00  0.0000E+00  0.0000E+00
    -39.187  0.0000E+00  0.0000E+00  0.0000E+00  0.0000E+00  0.0000E+00  0.0000E+00  0.0000E+00  0.0000E+00  0.0000E+00
    -38.929  0.0000E+00  0.0000E+00  0.0000E+00  0.0000E+00  0.0000E+00  0.0000E+00  0.0000E+00  0.0000E+00  0.0000E+00
    -38.670  0.0000E+00  0.0000E+00  0.0000E+00  0.0000E+00  0.0000E+00  0.0000E+00  0.0000E+00  0.0000E+00  0.0000E+00
    -38.412  0.2807E-03  0.7362E+01  0.5235E+02  0.7362E+01  0.6341E-03  0.3548E-04  0.1508E-03  0.3548E-04  0.6341E-03
    -38.153  0.0000E+00  0.0000E+00  0.0000E+00  0.0000E+00  0.0000E+00  0.0000E+00  0.0000E+00  0.0000E+00  0.0000E+00
    -37.895  0.0000E+00  0.0000E+00  0.0000E+00  0.0000E+00  0.0000E+00  0.0000E+00  0.0000E+00  0.0000E+00  0.0000E+00
    -37.637  0.0000E+00  0.0000E+00  0.0000E+00  0.0000E+00  0.0000E+00  0.0000E+00  0.0000E+00  0.0000E+00  0.0000E+00
    -37.378  0.0000E+00  0.0000E+00  0.0000E+00  0.0000E+00  0.0000E+00  0.0000E+00  0.0000E+00  0.0000E+00  0.0000E+00
    -37.120  0.0000E+00  0.0000E+00  0.0000E+00  0.0000E+00  0.0000E+00  0.0000E+00  0.0000E+00  0.0000E+00  0.0000E+00
    -36.861  0.0000E+00  0.0000E+00  0.0000E+00  0.0000E+00  0.0000E+00  0.0000E+00  0.0000E+00  0.0000E+00  0.0000E+00
    -36.603  0.0000E+00  0.0000E+00  0.0000E+00  0.0000E+00  0.0000E+00  0.0000E+00  0.0000E+00  0.0000E+00  0.0000E+00
    -36.344  0.0000E+00  0.0000E+00  0.0000E+00  0.0000E+00  0.0000E+00  0.0000E+00  0.0000E+00  0.0000E+00  0.0000E+00
    -36.086  0.0000E+00  0.0000E+00  0.0000E+00  0.0000E+00  0.0000E+00  0.0000E+00  0.0000E+00  0.0000E+00  0.0000E+00
    -35.827  0.0000E+00  0.0000E+00  0.0000E+00  0.0000E+00  0.0000E+00  0.0000E+00  0.0000E+00  0.0000E+00  0.0000E+00
    -35.569  0.0000E+00  0.0000E+00  0.0000E+00  0.0000E+00  0.0000E+00  0.0000E+00  0.0000E+00  0.0000E+00  0.0000E+00
    -35.310  0.0000E+00  0.0000E+00  0.0000E+00  0.0000E+00  0.0000E+00  0.0000E+00  0.0000E+00  0.0000E+00  0.0000E+00
    -35.052  0.0000E+00  0.0000E+00  0.0000E+00  0.0000E+00  0.0000E+00  0.0000E+00  0.0000E+00  0.0000E+00  0.0000E+00
    -34.793  0.0000E+00  0.0000E+00  0.0000E+00  0.0000E+00  0.0000E+00  0.0000E+00  0.0000E+00  0.0000E+00  0.0000E+00
    -34.535  0.0000E+00  0.0000E+00  0.0000E+00  0.0000E+00  0.0000E+00  0.0000E+00  0.0000E+00  0.0000E+00  0.0000E+00
    -34.276  0.0000E+00  0.0000E+00  0.0000E+00  0.0000E+00  0.0000E+00  0.0000E+00  0.0000E+00  0.0000E+00  0.0000E+00
    -34.018  0.0000E+00  0.0000E+00  0.0000E+00  0.0000E+00  0.0000E+00  0.0000E+00  0.0000E+00  0.0000E+00  0.0000E+00
    -33.759  0.0000E+00  0.0000E+00  0.0000E+00  0.0000E+00  0.0000E+00  0.0000E+00  0.0000E+00  0.0000E+00  0.0000E+00
    -33.501  0.0000E+00  0.0000E+00  0.0000E+00  0.0000E+00  0.0000E+00  0.0000E+00  0.0000E+00  0.0000E+00  0.0000E+00
    -33.243  0.0000E+00  0.0000E+00  0.0000E+00  0.0000E+00  0.0000E+00  0.0000E+00  0.0000E+00  0.0000E+00  0.0000E+00
    -32.984  0.0000E+00  0.0000E+00  0.0000E+00  0.0000E+00  0.0000E+00  0.0000E+00  0.0000E+00  0.0000E+00  0.0000E+00
    -32.726  0.0000E+00  0.0000E+00  0.0000E+00  0.0000E+00  0.0000E+00  0.0000E+00  0.0000E+00  0.0000E+00  0.0000E+00
    -32.467  0.0000E+00  0.0000E+00  0.0000E+00  0.0000E+00  0.0000E+00  0.0000E+00  0.0000E+00  0.0000E+00  0.0000E+00
    -32.209  0.0000E+00  0.0000E+00  0.0000E+00  0.0000E+00  0.0000E+00  0.0000E+00  0.0000E+00  0.0000E+00  0.0000E+00
    -31.950  0.0000E+00  0.0000E+00  0.0000E+00  0.0000E+00  0.0000E+00  0.0000E+00  0.0000E+00  0.0000E+00  0.0000E+00
    -31.692  0.0000E+00  0.0000E+00  0.0000E+00  0.0000E+00  0.0000E+00  0.0000E+00  0.0000E+00  0.0000E+00  0.0000E+00
    -31.433  0.0000E+00  0.0000E+00  0.0000E+00  0.0000E+00  0.0000E+00  0.0000E+00  0.0000E+00  0.0000E+00  0.0000E+00
    -31.175  0.0000E+00  0.0000E+00  0.0000E+00  0.0000E+00  0.0000E+00  0.0000E+00  0.0000E+00  0.0000E+00  0.0000E+00
    -30.916  0.0000E+00  0.0000E+00  0.0000E+00  0.0000E+00  0.0000E+00  0.0000E+00  0.0000E+00  0.0000E+00  0.0000E+00
    -30.658  0.0000E+00  0.0000E+00  0.0000E+00  0.0000E+00  0.0000E+00  0.0000E+00  0.0000E+00  0.0000E+00  0.0000E+00
    -30.399  0.0000E+00  0.0000E+00  0.0000E+00  0.0000E+00  0.0000E+00  0.0000E+00  0.0000E+00  0.0000E+00  0.0000E+00
    -30.141  0.0000E+00  0.0000E+00  0.0000E+00  0.0000E+00  0.0000E+00  0.0000E+00  0.0000E+00  0.0000E+00  0.0000E+00
    -29.882  0.0000E+00  0.0000E+00  0.0000E+00  0.0000E+00  0.0000E+00  0.0000E+00  0.0000E+00  0.0000E+00  0.0000E+00
    -29.624  0.0000E+00  0.0000E+00  0.0000E+00  0.0000E+00  0.0000E+00  0.0000E+00  0.0000E+00  0.0000E+00  0.0000E+00
    -29.365  0.0000E+00  0.0000E+00  0.0000E+00  0.0000E+00  0.0000E+00  0.0000E+00  0.0000E+00  0.0000E+00  0.0000E+00
    -29.107  0.0000E+00  0.0000E+00  0.0000E+00  0.0000E+00  0.0000E+00  0.0000E+00  0.0000E+00  0.0000E+00  0.0000E+00
    -28.849  0.0000E+00  0.0000E+00  0.0000E+00  0.0000E+00  0.0000E+00  0.0000E+00  0.0000E+00  0.0000E+00  0.0000E+00
    -28.590  0.0000E+00  0.0000E+00  0.0000E+00  0.0000E+00  0.0000E+00  0.0000E+00  0.0000E+00  0.0000E+00  0.0000E+00
    -28.332  0.0000E+00  0.0000E+00  0.0000E+00  0.0000E+00  0.0000E+00  0.0000E+00  0.0000E+00  0.0000E+00  0.0000E+00
    -28.073  0.0000E+00  0.0000E+00  0.0000E+00  0.0000E+00  0.0000E+00  0.0000E+00  0.0000E+00  0.0000E+00  0.0000E+00
    -27.815  0.0000E+00  0.0000E+00  0.0000E+00  0.0000E+00  0.0000E+00  0.0000E+00  0.0000E+00  0.0000E+00  0.0000E+00
    -27.556  0.0000E+00  0.0000E+00  0.0000E+00  0.0000E+00  0.0000E+00  0.0000E+00  0.0000E+00  0.0000E+00  0.0000E+00